    5    5   10    1
  0.1944088E+03  0.9830962E-09  0.9741494E-09  0.1015783E-08  0.5000000E-15
  1.000000000000000E-004
  CAR 
 unknown system                          
      8      4      8
 
  0.2500000E+00  0.2500000E+00  0.2500000E+00  0.2500000E+00
    1      -16.813233   1.000000
    2       -9.343523   1.000000
    3       -9.234560   1.000000
    4       -9.164870   1.000000
    5       -0.325756   0.000000
    6        0.569872   0.000000
    7        0.675504   0.000000
    8        0.716635   0.000000
 
 -0.2500000E+00  0.2500000E+00  0.2500000E+00  0.2500000E+00
    1      -16.813191   1.000000
    2       -9.343542   1.000000
    3       -9.234474   1.000000
    4       -9.164856   1.000000
    5       -0.323179   0.000000
    6        0.565641   0.000000
    7        0.672619   0.000000
    8        0.702485   0.000000
 
  0.2500000E+00 -0.2500000E+00  0.2500000E+00  0.2500000E+00
    1      -16.813188   1.000000
    2       -9.343579   1.000000
    3       -9.234476   1.000000
    4       -9.164875   1.000000
    5       -0.322591   0.000000
    6        0.566869   0.000000
    7        0.667423   0.000000
    8        0.702841   0.000000
 
 -0.2500000E+00 -0.2500000E+00  0.2500000E+00  0.2500000E+00
    1      -16.813216   1.000000
    2       -9.343575   1.000000
    3       -9.234521   1.000000
    4       -9.164827   1.000000
    5       -0.332519   0.000000
    6        0.587528   0.000000
    7        0.697019   0.000000
    8        0.724686   0.000000
