       N       E                     dE             d eps       ncg     rms          rms(c)
DAV:   1     0.127109962690E+02    0.12711E+02   -0.19324E+03    96   0.402E+02
DAV:   2    -0.237669485120E+02   -0.36478E+02   -0.36478E+02    64   0.115E+02
DAV:   3    -0.275163324679E+02   -0.37494E+01   -0.37494E+01    64   0.444E+01
DAV:   4    -0.276516348410E+02   -0.13530E+00   -0.13530E+00   128   0.904E+00
DAV:   5    -0.276516738194E+02   -0.38978E-04   -0.38979E-04    96   0.165E-01    0.888E+00
RMM:   6    -0.246565562424E+02    0.29951E+01   -0.55577E+00    64   0.145E+01    0.436E+00
RMM:   7    -0.241460924358E+02    0.51046E+00   -0.12893E+00    64   0.659E+00    0.231E+00
RMM:   8    -0.239983822769E+02    0.14771E+00   -0.16318E-01    64   0.290E+00    0.224E-01
RMM:   9    -0.239926876029E+02    0.56947E-02   -0.11235E-02    64   0.705E-01    0.197E-01
RMM:  10    -0.239867497866E+02    0.59378E-02   -0.23475E-02    64   0.839E-01    0.277E-01
RMM:  11    -0.239873827639E+02   -0.63298E-03   -0.69544E-03    64   0.526E-01    0.728E-02
RMM:  12    -0.239971136885E+02   -0.97309E-02   -0.38199E-03    64   0.383E-01    0.124E-01
RMM:  13    -0.239975387490E+02   -0.42506E-03   -0.81869E-04    64   0.161E-01    0.547E-02
RMM:  14    -0.240003718300E+02   -0.28331E-02   -0.16011E-03    64   0.246E-01    0.357E-02
RMM:  15    -0.240006051769E+02   -0.23335E-03   -0.86552E-05    64   0.583E-02    0.131E-02
RMM:  16    -0.240008110785E+02   -0.20590E-03   -0.98526E-05    64   0.608E-02    0.917E-03
RMM:  17    -0.240008402201E+02   -0.29142E-04   -0.37516E-05    64   0.346E-02    0.474E-03
RMM:  18    -0.240008527156E+02   -0.12495E-04   -0.35651E-06    60   0.114E-02    0.747E-04
RMM:  19    -0.240008560007E+02   -0.32851E-05   -0.42036E-07    48   0.434E-03    0.200E-04
RMM:  20    -0.240008571154E+02   -0.11148E-05   -0.81746E-08    44   0.236E-03    0.189E-04
RMM:  21    -0.240008578309E+02   -0.71545E-06   -0.61270E-08    48   0.188E-03
    1 T=     1. E= -.24000376E+02 F= -.24000858E+02 E0= -.24000858E+02  EK= 0.48226E-03 SP= 0.00E+00 SK= 0.00E+00
       N       E                     dE             d eps       ncg     rms          rms(c)
DAV:   1    -0.240045714564E+02   -0.37143E-02   -0.42017E-03    64   0.620E-01    0.311E-02
RMM:   2    -0.240045595666E+02    0.11890E-04   -0.11203E-04    64   0.911E-02    0.178E-02
RMM:   3    -0.240045573751E+02    0.21915E-05   -0.36830E-05    64   0.405E-02    0.548E-03
RMM:   4    -0.240045569277E+02    0.44743E-06   -0.92865E-07    48   0.843E-03
    2 T=     8. E= -.24000455E+02 F= -.24004557E+02 E0= -.24004557E+02  EK= 0.41015E-02 SP= 0.00E+00 SK= 0.00E+00
       N       E                     dE             d eps       ncg     rms          rms(c)
DAV:   1    -0.240107091093E+02   -0.61517E-02   -0.32568E-03    72   0.569E-01    0.979E-03
RMM:   2    -0.240107228761E+02   -0.13767E-04   -0.14686E-04    64   0.106E-01    0.397E-03
RMM:   3    -0.240107239642E+02   -0.10882E-05   -0.54837E-06    55   0.202E-02    0.353E-03
RMM:   4    -0.240107244068E+02   -0.44260E-06   -0.92013E-07    48   0.905E-03
    3 T=    20. E= -.24000580E+02 F= -.24010724E+02 E0= -.24010724E+02  EK= 0.10144E-01 SP= 0.00E+00 SK= 0.00E+00
       N       E                     dE             d eps       ncg     rms          rms(c)
DAV:   1    -0.240173887248E+02   -0.66648E-02   -0.10603E-03    64   0.271E-01    0.151E-02
RMM:   2    -0.240173843046E+02    0.44202E-05   -0.52435E-05    64   0.627E-02    0.844E-03
RMM:   3    -0.240173842455E+02    0.59155E-07   -0.25770E-05    64   0.300E-02    0.277E-03
RMM:   4    -0.240173841586E+02    0.86872E-07   -0.95559E-07    48   0.748E-03
    4 T=    32. E= -.24000703E+02 F= -.24017384E+02 E0= -.24017384E+02  EK= 0.16681E-01 SP= 0.00E+00 SK= 0.00E+00
       N       E                     dE             d eps       ncg     rms          rms(c)
DAV:   1    -0.240225083041E+02   -0.51241E-02   -0.12857E-03    64   0.314E-01    0.544E-03
RMM:   2    -0.240225132554E+02   -0.49513E-05   -0.12929E-05    64   0.280E-02    0.226E-03
RMM:   3    -0.240225173069E+02   -0.40515E-05   -0.10858E-06    48   0.886E-03    0.114E-03
RMM:   4    -0.240225223646E+02   -0.50577E-05   -0.30619E-07    48   0.406E-03    0.413E-04
RMM:   5    -0.240225277971E+02   -0.54325E-05   -0.36023E-07    48   0.313E-03    0.394E-04
RMM:   6    -0.240225327468E+02   -0.49497E-05   -0.34384E-07    44   0.301E-03    0.348E-04
RMM:   7    -0.240225338177E+02   -0.10710E-05   -0.47426E-08    38   0.171E-03    0.194E-04
RMM:   8    -0.240225347827E+02   -0.96493E-06   -0.11483E-07    44   0.204E-03
    5 T=    42. E= -.24000783E+02 F= -.24022535E+02 E0= -.24022535E+02  EK= 0.21752E-01 SP= 0.00E+00 SK= 0.00E+00
       N       E                     dE             d eps       ncg     rms          rms(c)
DAV:   1    -0.240248238229E+02   -0.22900E-02   -0.15403E-03    64   0.348E-01    0.966E-03
RMM:   2    -0.240248241464E+02   -0.32351E-06   -0.19045E-05    64   0.446E-02    0.601E-03
RMM:   3    -0.240248262023E+02   -0.20559E-05   -0.13353E-05    64   0.219E-02    0.223E-03
RMM:   4    -0.240248265106E+02   -0.30831E-06   -0.56380E-07    48   0.565E-03
    6 T=    46. E= -.24000798E+02 F= -.24024827E+02 E0= -.24024827E+02  EK= 0.24029E-01 SP= 0.00E+00 SK= 0.00E+00
       N       E                     dE             d eps       ncg     rms          rms(c)
DAV:   1    -0.240239363782E+02    0.88982E-03   -0.15120E-03    64   0.351E-01    0.380E-03
RMM:   2    -0.240239394529E+02   -0.30747E-05   -0.13503E-05    64   0.405E-02    0.306E-03
RMM:   3    -0.240239410668E+02   -0.16139E-05   -0.71318E-07    48   0.705E-03    0.157E-03
RMM:   4    -0.240239437141E+02   -0.26474E-05   -0.76386E-07    48   0.640E-03    0.483E-04
RMM:   5    -0.240239468083E+02   -0.30942E-05   -0.19115E-07    48   0.319E-03    0.514E-04
RMM:   6    -0.240239493547E+02   -0.25464E-05   -0.42414E-07    48   0.346E-03    0.507E-04
RMM:   7    -0.240239496482E+02   -0.29349E-06   -0.75730E-08    44   0.205E-03
    7 T=    45. E= -.24000756E+02 F= -.24023950E+02 E0= -.24023950E+02  EK= 0.23193E-01 SP= 0.00E+00 SK= 0.00E+00
       N       E                     dE             d eps       ncg     rms          rms(c)
DAV:   1    -0.240205611097E+02    0.33882E-02   -0.12152E-03    88   0.322E-01    0.820E-03
RMM:   2    -0.240205647941E+02   -0.36845E-05   -0.15641E-05    64   0.363E-02    0.346E-03
RMM:   3    -0.240205704740E+02   -0.56799E-05   -0.41064E-06    60   0.132E-02    0.109E-03
RMM:   4    -0.240205732986E+02   -0.28246E-05   -0.20845E-07    48   0.388E-03    0.593E-04
RMM:   5    -0.240205802649E+02   -0.69663E-05   -0.58996E-07    48   0.432E-03    0.896E-04
RMM:   6    -0.240205822937E+02   -0.20288E-05   -0.45770E-07    48   0.385E-03    0.617E-04
RMM:   7    -0.240205829708E+02   -0.67712E-06   -0.49419E-08    44   0.185E-03
    8 T=    39. E= -.24000664E+02 F= -.24020583E+02 E0= -.24020583E+02  EK= 0.19919E-01 SP= 0.00E+00 SK= 0.00E+00
       N       E                     dE             d eps       ncg     rms          rms(c)
DAV:   1    -0.240161091484E+02    0.44731E-02   -0.79003E-04    72   0.274E-01    0.264E-03
RMM:   2    -0.240161126436E+02   -0.34952E-05   -0.11342E-05    64   0.386E-02    0.217E-03
RMM:   3    -0.240161141847E+02   -0.15411E-05   -0.34057E-07    48   0.493E-03    0.139E-03
RMM:   4    -0.240161171681E+02   -0.29834E-05   -0.46353E-07    48   0.477E-03    0.348E-04
RMM:   5    -0.240161185118E+02   -0.13438E-05   -0.52005E-08    44   0.214E-03    0.220E-04
RMM:   6    -0.240161207642E+02   -0.22523E-05   -0.70295E-08    45   0.184E-03    0.233E-04
RMM:   7    -0.240161209984E+02   -0.23422E-06   -0.28280E-08    35   0.149E-03
    9 T=    30. E= -.24000560E+02 F= -.24016121E+02 E0= -.24016121E+02  EK= 0.15561E-01 SP= 0.00E+00 SK= 0.00E+00
       N       E                     dE             d eps       ncg     rms          rms(c)
DAV:   1    -0.240121659783E+02    0.39548E-02   -0.39535E-04    72   0.230E-01    0.166E-03
RMM:   2    -0.240121673021E+02   -0.13238E-05   -0.86403E-06    64   0.322E-02    0.113E-03
RMM:   3    -0.240121675428E+02   -0.24068E-06   -0.12881E-07    46   0.352E-03    0.938E-04
RMM:   4    -0.240121683907E+02   -0.84783E-06   -0.11473E-07    48   0.269E-03
   10 T=    23. E= -.24000473E+02 F= -.24012168E+02 E0= -.24012168E+02  EK= 0.11696E-01 SP= 0.00E+00 SK= 0.00E+00
