 vasp.5.4.4.18Apr17-6-g9f103f2a35 (build Nov 25 2021 15:25:00) complex          
  
 executed on             LinuxIFC date 2022.02.21  10:17:01
 running on   16 total cores
 distrk:  each k-point on   16 cores,    1 groups
 distr:  one band on NCORES_PER_BAND=   4 cores,    4 groups


--------------------------------------------------------------------------------------------------------


 INCAR:
 POTCAR:    PAW_PBE H 15Jun2001                   
 POTCAR:    PAW_PBE C 08Apr2002                   
 POTCAR:    PAW_PBE H 15Jun2001                   
   VRHFIN =H: ultrasoft test                                                    
   LEXCH  = PE                                                                  
   EATOM  =    12.4884 eV,    0.9179 Ry                                         
                                                                                
   TITEL  = PAW_PBE H 15Jun2001                                                 
   LULTRA =        F    use ultrasoft PP ?                                      
   IUNSCR =        0    unscreen: 0-lin 1-nonlin 2-no                           
   RPACOR =    0.000    partial core radius                                     
   POMASS =    1.000; ZVAL   =    1.000    mass and valenz                      
   RCORE  =    1.100    outmost cutoff radius                                   
   RWIGS  =    0.700; RWIGS  =    0.370    wigner-seitz radius (au A)           
   ENMAX  =  250.000; ENMIN  =  200.000 eV                                      
   RCLOC  =    0.701    cutoff for local pot                                    
   LCOR   =        T    correct aug charges                                     
   LPAW   =        T    paw PP                                                  
   EAUG   =  400.000                                                            
   RMAX   =    1.123    core radius for proj-oper                               
   RAUG   =    1.200    factor for augmentation sphere                          
   RDEP   =    1.112    radius for radial grids                                 
   RDEPT  =    0.926    core radius for aug-charge                              
                                                                                
   Atomic configuration                                                         
    2 entries                                                                   
     n  l   j            E        occ.                                          
     1  0  0.50        -6.4927   1.0000                                         
     2  1  0.50        -3.4015   0.0000                                         
   Description                                                                  
     l       E           TYP  RCUT    TYP  RCUT                                 
     0     -6.4927494     23  1.100                                             
     0      6.8029130     23  1.100                                             
     1     -4.0817478     23  1.100                                             
  local pseudopotential read in
  atomic valenz-charges read in
  non local Contribution for L=           0  read in
    real space projection operators read in
  non local Contribution for L=           0  read in
    real space projection operators read in
  non local Contribution for L=           1  read in
    real space projection operators read in
    PAW grid and wavefunctions read in
 
   number of l-projection  operators is LMAX  =           3
   number of lm-projection operators is LMMAX =           5
 
 POTCAR:    PAW_PBE C 08Apr2002                   
   VRHFIN =C: s2p2                                                              
   LEXCH  = PE                                                                  
   EATOM  =   147.1560 eV,   10.8157 Ry                                         
                                                                                
   TITEL  = PAW_PBE C 08Apr2002                                                 
   LULTRA =        F    use ultrasoft PP ?                                      
   IUNSCR =        1    unscreen: 0-lin 1-nonlin 2-no                           
   RPACOR =    1.200    partial core radius                                     
   POMASS =   12.011; ZVAL   =    4.000    mass and valenz                      
   RCORE  =    1.500    outmost cutoff radius                                   
   RWIGS  =    1.630; RWIGS  =    0.863    wigner-seitz radius (au A)           
   ENMAX  =  400.000; ENMIN  =  300.000 eV                                      
   ICORE  =        2    local potential                                         
   LCOR   =        T    correct aug charges                                     
   LPAW   =        T    paw PP                                                  
   EAUG   =  644.873                                                            
   DEXC   =    0.000                                                            
   RMAX   =    1.529    core radius for proj-oper                               
   RAUG   =    1.300    factor for augmentation sphere                          
   RDEP   =    1.501    radius for radial grids                                 
   RDEPT  =    1.300    core radius for aug-charge                              
                                                                                
   Atomic configuration                                                         
    4 entries                                                                   
     n  l   j            E        occ.                                          
     1  0  0.50      -273.3789   2.0000                                         
     2  0  0.50       -13.7508   2.0000                                         
     2  1  0.50        -5.2854   2.0000                                         
     3  2  1.50        -5.4423   0.0000                                         
   Description                                                                  
     l       E           TYP  RCUT    TYP  RCUT                                 
     0    -13.7508458     23  1.200                                             
     0     -8.2022199     23  1.200                                             
     1     -5.2854383     23  1.500                                             
     1     34.0145650     23  1.500                                             
     2     -5.4423304      7  1.500                                             
  local pseudopotential read in
  partial core-charges read in
  partial kinetic energy density read in
  atomic valenz-charges read in
  non local Contribution for L=           0  read in
    real space projection operators read in
  non local Contribution for L=           0  read in
    real space projection operators read in
  non local Contribution for L=           1  read in
    real space projection operators read in
  non local Contribution for L=           1  read in
    real space projection operators read in
    PAW grid and wavefunctions read in
 
   number of l-projection  operators is LMAX  =           4
   number of lm-projection operators is LMMAX =           8
 
  PAW_PBE H 15Jun2001                   :
 energy of atom  1       EATOM=  -12.4884
 kinetic energy error for atom=    0.0098 (will be added to EATOM!!)
  PAW_PBE C 08Apr2002                   :
 energy of atom  2       EATOM= -147.1560
 kinetic energy error for atom=    0.0288 (will be added to EATOM!!)
 
 
 POSCAR:  H  C                                   
  positions in cartesian coordinates
  No initial velocities read in
 exchange correlation table for  LEXCH =        8
   RHO(1)=    0.500       N(1)  =     2000
   RHO(2)=  100.500       N(2)  =     4000

 VTST: version 3.2, (02/03/18)

 CHAIN: initializing optimizer
 
 OPT: Using VASP Dynamics algorithm
 CHAIN: Read ICHAIN            0
 
 POSCAR:  H  C                                   
  positions in cartesian coordinates
  No initial velocities read in
 


--------------------------------------------------------------------------------------------------------


 ion  position               nearest neighbor table
   1  0.538  0.407  0.361-   5 1.10
   2  0.395  0.480  0.438-   5 1.07
   3  0.552  0.566  0.442-   5 1.08
   4  0.528  0.416  0.540-   5 1.11
   5  0.503  0.468  0.446-   2 1.07   3 1.08   1 1.10   4 1.11
 

IMPORTANT INFORMATION: All symmetrisations will be switched off!
NOSYMM: (Re-)initialisation of all symmetry stuff for point group C_1.

 
 

Automatic generation of k-mesh.
 generate k-points for:    2    2    2
Space group operators:
 irot       det(A)        alpha          n_x          n_y          n_z        tau_x        tau_y        tau_z
    1     1.000000     0.000001     1.000000     0.000000     0.000000     0.000000     0.000000     0.000000
 
 Subroutine IBZKPT returns following result:
 ===========================================
 
 Found      4 irreducible k-points:
 
 Following reciprocal coordinates:
            Coordinates               Weight
  0.250000  0.250000  0.250000      2.000000
 -0.250000  0.250000  0.250000      2.000000
  0.250000 -0.250000  0.250000      2.000000
 -0.250000 -0.250000  0.250000      2.000000
 
 Following cartesian coordinates:
            Coordinates               Weight
  0.025430  0.024909  0.025515      2.000000
 -0.025430  0.026442  0.024519      2.000000
  0.025430 -0.026442  0.024720      2.000000
 -0.025430 -0.024909  0.023724      2.000000
 


--------------------------------------------------------------------------------------------------------




 Dimension of arrays:
   k-points           NKPTS =      4   k-points in BZ     NKDIM =      4   number of bands    NBANDS=      8
   number of dos      NEDOS =    301   number of ions     NIONS =      5
   non local maximal  LDIM  =      4   non local SUM 2l+1 LMDIM =      8
   total plane-waves  NPLWV = 286720
   max r-space proj   IRMAX =      1   max aug-charges    IRDMAX=   3680
   dimension x,y,z NGX =    64 NGY =   64 NGZ =   70
   dimension x,y,z NGXF=   128 NGYF=  128 NGZF=  140
   support grid    NGXF=   128 NGYF=  128 NGZF=  140
   ions per type =               4   1
   NGX,Y,Z   is equivalent  to a cutoff of  10.82, 10.92, 11.46 a.u.
   NGXF,Y,Z  is equivalent  to a cutoff of  21.65, 21.84, 22.91 a.u.

 SYSTEM =  unknown system                          
 POSCAR =   H  C                                   

 Startparameter for this run:
   NWRITE =      2    write-flag & timer
   PREC   = a         normal or accurate (medium, high low for compatibility)
   ISTART =      0    job   : 0-new  1-cont  2-samecut
   ICHARG =      2    charge: 1-file 2-atom 10-const
   ISPIN  =      1    spin polarized calculation?
   LNONCOLLINEAR =      F non collinear calculations
   LSORBIT =      F    spin-orbit coupling
   INIWAV =      1    electr: 0-lowe 1-rand  2-diag
   LASPH  =      F    aspherical Exc in radial PAW
   METAGGA=      F    non-selfconsistent MetaGGA calc.

 Electronic Relaxation 1
   ENCUT  =  400.0 eV  29.40 Ry    5.42 a.u.  16.03 15.89 16.56*2*pi/ulx,y,z
   ENINI  =  400.0     initial cutoff
   ENAUG  =  644.9 eV  augmentation charge cutoff
   NELM   =    120;   NELMIN=  4; NELMDL= -5     # of ELM steps 
   EDIFF  = 0.1E-05   stopping-criterion for ELM
   LREAL  =      F    real-space projection
   NLSPLINE    = F    spline interpolate recip. space projectors
   LCOMPAT=      F    compatible to vasp.4.4
   GGA_COMPAT  = T    GGA compatible to vasp.4.4-vasp.4.6
   LMAXPAW     = -100 max onsite density
   LMAXMIX     =    2 max onsite mixed and CHGCAR
   VOSKOWN=      0    Vosko Wilk Nusair interpolation
   ROPT   =    0.00000   0.00000
 Ionic relaxation
   EDIFFG = 0.1E-04   stopping-criterion for IOM
   NSW    =     10    number of steps for IOM
   NBLOCK =      1;   KBLOCK =     10    inner block; outer block 
   IBRION =      0    ionic relax: 0-MD 1-quasi-New 2-CG
   NFREE  =      0    steps in history (QN), initial steepest desc. (CG)
   ISIF   =      2    stress and relaxation
   IWAVPR =     12    prediction:  0-non 1-charg 2-wave 3-comb
   ISYM   =      0    0-nonsym 1-usesym 2-fastsym
   LCORR  =      T    Harris-Foulkes like correction to forces

   POTIM  = 0.5000    time-step for ionic-motion
   TEIN   =    0.0    initial temperature
   TEBEG  =    0.0;   TEEND  =   0.0 temperature during run
   SMASS  =  -3.00    Nose mass-parameter (am)
   estimated Nose-frequenzy (Omega)   =  0.10E-29 period in steps =****** mass=  -0.221E-26a.u.
   SCALEE = 1.0000    scale energy and forces
   NPACO  =    256;   APACO  = 16.0  distance and # of slots for P.C.
   PSTRESS=    0.0 pullay stress

  Mass of Ions in am
   POMASS =   1.00 12.01
  Ionic Valenz
   ZVAL   =   1.00  4.00
  Atomic Wigner-Seitz radii
   RWIGS  =  -1.00 -1.00
  virtual crystal weights 
   VCA    =   1.00  1.00
   NELECT =       8.0000    total number of electrons
   NUPDOWN=      -1.0000    fix difference up-down

 DOS related values:
   EMIN   =  10.00;   EMAX   =-10.00  energy-range for DOS
   EFERMI =   0.00
   ISMEAR =     0;   SIGMA  =   0.20  broadening in eV -4-tet -1-fermi 0-gaus

 Electronic relaxation 2 (details)
   IALGO  =     68    algorithm
   LDIAG  =      T    sub-space diagonalisation (order eigenvalues)
   LSUBROT=      F    optimize rotation matrix (better conditioning)
   TURBO    =      0    0=normal 1=particle mesh
   IRESTART =      0    0=no restart 2=restart with 2 vectors
   NREBOOT  =      0    no. of reboots
   NMIN     =      0    reboot dimension
   EREF     =   0.00    reference energy to select bands
   IMIX   =      4    mixing-type and parameters
     AMIX     =   0.40;   BMIX     =  1.00
     AMIX_MAG =   1.60;   BMIX_MAG =  1.00
     AMIN     =   0.10
     WC   =   100.;   INIMIX=   1;  MIXPRE=   1;  MAXMIX= -45

 Intra band minimization:
   WEIMIN = 0.0010     energy-eigenvalue tresh-hold
   EBREAK =  0.31E-07  absolut break condition
   DEPER  =   0.30     relativ break condition  

   TIME   =   0.40     timestep for ELM

  volume/ion in A,a.u.               =     194.41      1311.94
  Fermi-wavevector in a.u.,A,eV,Ry     =   0.330529  0.624609  1.486428  0.109249
  Thomas-Fermi vector in A             =   1.225910
 
 Write flags
   LWAVE        =      F    write WAVECAR
   LDOWNSAMPLE  =      F    k-point downsampling of WAVECAR
   LCHARG       =      F    write CHGCAR
   LVTOT        =      F    write LOCPOT, total local potential
   LVHAR        =      F    write LOCPOT, Hartree potential only
   LELF         =      F    write electronic localiz. function (ELF)
   LORBIT       =      0    0 simple, 1 ext, 2 COOP (PROOUT), +10 PAW based schemes


 Dipole corrections
   LMONO  =      F    monopole corrections only (constant potential shift)
   LDIPOL =      F    correct potential (dipole corrections)
   IDIPOL =      0    1-x, 2-y, 3-z, 4-all directions 
   EPSILON=  1.0000000 bulk dielectric constant

 Exchange correlation treatment:
   GGA     =    --    GGA type
   LEXCH   =     8    internal setting for exchange type
   VOSKOWN=      0    Vosko Wilk Nusair interpolation
   LHFCALC =     F    Hartree Fock is set to
   LHFONE  =     F    Hartree Fock one center treatment
   AEXX    =    0.0000 exact exchange contribution

 Linear response parameters
   LEPSILON=     F    determine dielectric tensor
   LRPA    =     F    only Hartree local field effects (RPA)
   LNABLA  =     F    use nabla operator in PAW spheres
   LVEL    =     F    velocity operator in full k-point grid
   LINTERFAST=   F  fast interpolation
   KINTER  =     0    interpolate to denser k-point grid
   CSHIFT  =0.1000    complex shift for real part using Kramers Kronig
   OMEGAMAX=  -1.0    maximum frequency
   DEG_THRESHOLD= 0.2000000E-02 threshold for treating states as degnerate
   RTIME   =   -0.100 relaxation time in fs
  (WPLASMAI=    0.000 imaginary part of plasma frequency in eV, 0.658/RTIME)
   DFIELD  = 0.0000000 0.0000000 0.0000000 field for delta impulse in time
 
 Orbital magnetization related:
   ORBITALMAG=     F  switch on orbital magnetization
   LCHIMAG   =     F  perturbation theory with respect to B field
   DQ        =  0.001000  dq finite difference perturbation B field
   LLRAUG    =     F  two centre corrections for induced B field



--------------------------------------------------------------------------------------------------------


 molecular dynamics for ions
   using a microcanonical ensemble
 charge density and potential will be updated during run
 non-spin polarized calculation
 RMM-DIIS sequential band-by-band and
  variant of blocked Davidson during initial phase
 perform sub-space diagonalisation
    before iterative eigenvector-optimisation
 modified Broyden-mixing scheme, WC =      100.0
 initial mixing is a Kerker type mixing with AMIX =  0.4000 and BMIX =      1.0000
 Hartree-type preconditioning will be used
 using additional bands            4
 reciprocal scheme for non local part
 use partial core corrections
 calculate Harris-corrections to forces 
   (improved forces if not selfconsistent)
 use gradient corrections 
 use of overlap-Matrix (Vanderbilt PP)
 Gauss-broadening in eV      SIGMA  =   0.20


--------------------------------------------------------------------------------------------------------


  energy-cutoff  :      400.00
  volume of cell :      972.04
      direct lattice vectors                 reciprocal lattice vectors
     9.830961504  0.000000000  0.000000000     0.101719450 -0.003065792  0.001991379
     0.293472325  9.737072822  0.000000000     0.000000000  0.102700269  0.001589093
    -0.203533371 -0.157122836 10.154570222     0.000000000  0.000000000  0.098477826

  length of vectors
     9.830961504  9.741494400 10.157825053     0.101785123  0.102712563  0.098477826


 
 k-points in units of 2pi/SCALE and weight: read from INCAR                         
   0.02542986  0.02490862  0.02551457       0.250
  -0.02542986  0.02644152  0.02451889       0.250
   0.02542986 -0.02644152  0.02472003       0.250
  -0.02542986 -0.02490862  0.02372434       0.250
 
 k-points in reciprocal lattice and weights: read from INCAR                         
   0.25000000  0.25000000  0.25000000       0.250
  -0.25000000  0.25000000  0.25000000       0.250
   0.25000000 -0.25000000  0.25000000       0.250
  -0.25000000 -0.25000000  0.25000000       0.250
 
 position of ions in fractional coordinates (direct lattice) 
   0.53803105  0.40685964  0.36064840
   0.39455662  0.48029430  0.43849976
   0.55174468  0.56564137  0.44234224
   0.52842819  0.41606348  0.53972948
   0.50287430  0.46790444  0.44581279
 
 position of ions in cartesian coordinates  (Angst):
   5.33536059  3.90495582  3.66222947
   3.93057467  4.60776221  4.45277657
   5.50014942  5.43818918  4.49179537
   5.20720736  3.96643658  5.48072087
   4.99031712  4.48597224  4.52703732
 


--------------------------------------------------------------------------------------------------------


 k-point  1 :   0.2500 0.2500 0.2500  plane waves:   17682
 k-point  2 :  -0.2500 0.2500 0.2500  plane waves:   17659
 k-point  3 :   0.2500-0.2500 0.2500  plane waves:   17669
 k-point  4 :  -0.2500-0.2500 0.2500  plane waves:   17670

 maximum and minimum number of plane-waves per node :      4466     4373

 maximum number of plane-waves:     17682
 maximum index in each direction: 
   IXMAX=   16   IYMAX=   16   IZMAX=   16
   IXMIN=  -16   IYMIN=  -16   IZMIN=  -16


 parallel 3D FFT for wavefunctions:
    minimum data exchange during FFTs selected (reduces bandwidth)
 parallel 3D FFT for charge:
    minimum data exchange during FFTs selected (reduces bandwidth)


 total amount of memory used by VASP MPI-rank0    51197. kBytes
=======================================================================

   base      :      30000. kBytes
   nonl-proj :       2628. kBytes
   fftplans  :       7000. kBytes
   grid      :      10993. kBytes
   one-center:          6. kBytes
   wavefun   :        570. kBytes
 
     INWAV:  cpu time    0.0000: real time    0.0001
 Broyden mixing: mesh for mixing (old mesh)
   NGX = 33   NGY = 31   NGZ = 33
  (NGX  =128   NGY  =128   NGZ  =140)
  gives a total of  33759 points

 initial charge density was supplied:
 charge density of overlapping atoms calculated
 number of electron       8.0000000 magnetization 
 keeping initial charge density in first step


--------------------------------------------------------------------------------------------------------


 Maximum index for augmentation-charges          279 (set IRDMAX)


--------------------------------------------------------------------------------------------------------


 First call to EWALD:  gamma=   0.179
 Maximum number of real-space cells 3x 3x 3
 Maximum number of reciprocal cells 3x 3x 3

    FEWALD:  cpu time    0.0032: real time    0.0032


--------------------------------------- Iteration      1(   1)  ---------------------------------------


    POTLOK:  cpu time    0.1490: real time    0.1649
    SETDIJ:  cpu time    0.0052: real time    0.0063
     EDDAV:  cpu time    0.2035: real time    0.2301
       DOS:  cpu time    0.0012: real time    0.0012
    --------------------------------------------
      LOOP:  cpu time    0.3589: real time    0.4025

 eigenvalue-minimisations  :    96
 total energy-change (2. order) : 0.1271100E+02  (-0.1932450E+03)
 number of electron       8.0000000 magnetization 
 augmentation part        8.0000000 magnetization 

 Free energy of the ion-electron system (eV)
  ---------------------------------------------------
  alpha Z        PSCENC =         0.24921791
  Ewald energy   TEWEN  =       129.51377229
  -Hartree energ DENC   =      -243.86077361
  -exchange      EXHF   =         0.00000000
  -V(xc)+E(xc)   XCENC  =        22.05608149
  PAW double counting   =       117.05815612     -117.66307307
  entropy T*S    EENTRO =        -0.00000000
  eigenvalues    EBANDS =       -91.68413940
  atomic energy  EATOM  =       197.04175453
  Solvation  Ediel_sol  =         0.00000000
  ---------------------------------------------------
  free energy    TOTEN  =        12.71099627 eV

  energy without entropy =       12.71099627  energy(sigma->0) =       12.71099627


--------------------------------------------------------------------------------------------------------




--------------------------------------- Iteration      1(   2)  ---------------------------------------


     EDDAV:  cpu time    0.1577: real time    0.1585
       DOS:  cpu time    0.0004: real time    0.0004
    --------------------------------------------
      LOOP:  cpu time    0.1580: real time    0.1589

 eigenvalue-minimisations  :    64
 total energy-change (2. order) :-0.3647794E+02  (-0.3647794E+02)
 number of electron       8.0000000 magnetization 
 augmentation part        8.0000000 magnetization 

 Free energy of the ion-electron system (eV)
  ---------------------------------------------------
  alpha Z        PSCENC =         0.24921791
  Ewald energy   TEWEN  =       129.51377229
  -Hartree energ DENC   =      -243.86077361
  -exchange      EXHF   =         0.00000000
  -V(xc)+E(xc)   XCENC  =        22.05608149
  PAW double counting   =       117.05815612     -117.66307307
  entropy T*S    EENTRO =        -0.00000000
  eigenvalues    EBANDS =      -128.16208418
  atomic energy  EATOM  =       197.04175453
  Solvation  Ediel_sol  =         0.00000000
  ---------------------------------------------------
  free energy    TOTEN  =       -23.76694851 eV

  energy without entropy =      -23.76694851  energy(sigma->0) =      -23.76694851


--------------------------------------------------------------------------------------------------------




--------------------------------------- Iteration      1(   3)  ---------------------------------------


     EDDAV:  cpu time    0.1433: real time    0.1435
       DOS:  cpu time    0.0002: real time    0.0002
    --------------------------------------------
      LOOP:  cpu time    0.1436: real time    0.1437

 eigenvalue-minimisations  :    64
 total energy-change (2. order) :-0.3749384E+01  (-0.3749384E+01)
 number of electron       8.0000000 magnetization 
 augmentation part        8.0000000 magnetization 

 Free energy of the ion-electron system (eV)
  ---------------------------------------------------
  alpha Z        PSCENC =         0.24921791
  Ewald energy   TEWEN  =       129.51377229
  -Hartree energ DENC   =      -243.86077361
  -exchange      EXHF   =         0.00000000
  -V(xc)+E(xc)   XCENC  =        22.05608149
  PAW double counting   =       117.05815612     -117.66307307
  entropy T*S    EENTRO =        -0.00000000
  eigenvalues    EBANDS =      -131.91146814
  atomic energy  EATOM  =       197.04175453
  Solvation  Ediel_sol  =         0.00000000
  ---------------------------------------------------
  free energy    TOTEN  =       -27.51633247 eV

  energy without entropy =      -27.51633247  energy(sigma->0) =      -27.51633247


--------------------------------------------------------------------------------------------------------




--------------------------------------- Iteration      1(   4)  ---------------------------------------


     EDDAV:  cpu time    0.2397: real time    0.2401
       DOS:  cpu time    0.0005: real time    0.0005
    --------------------------------------------
      LOOP:  cpu time    0.2402: real time    0.2407

 eigenvalue-minimisations  :   128
 total energy-change (2. order) :-0.1353024E+00  (-0.1353024E+00)
 number of electron       8.0000000 magnetization 
 augmentation part        8.0000000 magnetization 

 Free energy of the ion-electron system (eV)
  ---------------------------------------------------
  alpha Z        PSCENC =         0.24921791
  Ewald energy   TEWEN  =       129.51377229
  -Hartree energ DENC   =      -243.86077361
  -exchange      EXHF   =         0.00000000
  -V(xc)+E(xc)   XCENC  =        22.05608149
  PAW double counting   =       117.05815612     -117.66307307
  entropy T*S    EENTRO =        -0.00000000
  eigenvalues    EBANDS =      -132.04677051
  atomic energy  EATOM  =       197.04175453
  Solvation  Ediel_sol  =         0.00000000
  ---------------------------------------------------
  free energy    TOTEN  =       -27.65163484 eV

  energy without entropy =      -27.65163484  energy(sigma->0) =      -27.65163484


--------------------------------------------------------------------------------------------------------




--------------------------------------- Iteration      1(   5)  ---------------------------------------


     EDDAV:  cpu time    0.1911: real time    0.1912
       DOS:  cpu time    0.0002: real time    0.0002
    CHARGE:  cpu time    0.0197: real time    0.0197
    MIXING:  cpu time    0.0043: real time    0.0043
    --------------------------------------------
      LOOP:  cpu time    0.2154: real time    0.2155

 eigenvalue-minimisations  :    96
 total energy-change (2. order) :-0.3897842E-04  (-0.3897857E-04)
 number of electron       8.0000003 magnetization 
 augmentation part        0.2284602 magnetization 

 Broyden mixing:
  rms(total) = 0.88767E+00    rms(broyden)= 0.88744E+00
  rms(prec ) = 0.12539E+01
  weight for this iteration     100.00

 Free energy of the ion-electron system (eV)
  ---------------------------------------------------
  alpha Z        PSCENC =         0.24921791
  Ewald energy   TEWEN  =       129.51377229
  -Hartree energ DENC   =      -243.86077361
  -exchange      EXHF   =         0.00000000
  -V(xc)+E(xc)   XCENC  =        22.05608149
  PAW double counting   =       117.05815612     -117.66307307
  entropy T*S    EENTRO =        -0.00000000
  eigenvalues    EBANDS =      -132.04680949
  atomic energy  EATOM  =       197.04175453
  Solvation  Ediel_sol  =         0.00000000
  ---------------------------------------------------
  free energy    TOTEN  =       -27.65167382 eV

  energy without entropy =      -27.65167382  energy(sigma->0) =      -27.65167382


--------------------------------------------------------------------------------------------------------




--------------------------------------- Iteration      1(   6)  ---------------------------------------


    POTLOK:  cpu time    0.1500: real time    0.1502
    SETDIJ:  cpu time    0.0024: real time    0.0024
    EDDIAG:  cpu time    0.0433: real time    0.0551
  RMM-DIIS:  cpu time    0.1545: real time    0.1592
    ORTHCH:  cpu time    0.0015: real time    0.0015
       DOS:  cpu time    0.0002: real time    0.0002
    CHARGE:  cpu time    0.0193: real time    0.0197
    MIXING:  cpu time    0.0051: real time    0.0084
    --------------------------------------------
      LOOP:  cpu time    0.3764: real time    0.3968

 eigenvalue-minimisations  :    64
 total energy-change (2. order) : 0.2995118E+01  (-0.5557707E+00)
 number of electron       8.0000003 magnetization 
 augmentation part        0.2012988 magnetization 

 Broyden mixing:
  rms(total) = 0.43630E+00    rms(broyden)= 0.43621E+00
  rms(prec ) = 0.56552E+00
  weight for this iteration     100.00

 eigenvalues of (default mixing * dielectric matrix)
  average eigenvalue GAMMA=   1.3102
  1.3102

 Free energy of the ion-electron system (eV)
  ---------------------------------------------------
  alpha Z        PSCENC =         0.24921791
  Ewald energy   TEWEN  =       129.51377229
  -Hartree energ DENC   =      -263.93018088
  -exchange      EXHF   =         0.00000000
  -V(xc)+E(xc)   XCENC  =        23.27422973
  PAW double counting   =       241.29974482     -242.08435644
  entropy T*S    EENTRO =        -0.00000000
  eigenvalues    EBANDS =      -110.02073820
  atomic energy  EATOM  =       197.04175453
  Solvation  Ediel_sol  =         0.00000000
  ---------------------------------------------------
  free energy    TOTEN  =       -24.65655624 eV

  energy without entropy =      -24.65655624  energy(sigma->0) =      -24.65655624


--------------------------------------------------------------------------------------------------------




--------------------------------------- Iteration      1(   7)  ---------------------------------------


    POTLOK:  cpu time    0.1328: real time    0.1376
    SETDIJ:  cpu time    0.0023: real time    0.0024
    EDDIAG:  cpu time    0.0379: real time    0.0391
  RMM-DIIS:  cpu time    0.1507: real time    0.1579
    ORTHCH:  cpu time    0.0016: real time    0.0016
       DOS:  cpu time    0.0002: real time    0.0002
    CHARGE:  cpu time    0.0171: real time    0.0177
    MIXING:  cpu time    0.0050: real time    0.0051
    --------------------------------------------
      LOOP:  cpu time    0.3476: real time    0.3615

 eigenvalue-minimisations  :    64
 total energy-change (2. order) : 0.5104638E+00  (-0.1289253E+00)
 number of electron       8.0000003 magnetization 
 augmentation part        0.1904646 magnetization 

 Broyden mixing:
  rms(total) = 0.23108E+00    rms(broyden)= 0.23102E+00
  rms(prec ) = 0.27844E+00
  weight for this iteration     100.00

 eigenvalues of (default mixing * dielectric matrix)
  average eigenvalue GAMMA=   1.8437
  1.4651  2.2222

 Free energy of the ion-electron system (eV)
  ---------------------------------------------------
  alpha Z        PSCENC =         0.24921791
  Ewald energy   TEWEN  =       129.51377229
  -Hartree energ DENC   =      -275.91105315
  -exchange      EXHF   =         0.00000000
  -V(xc)+E(xc)   XCENC  =        24.15157500
  PAW double counting   =       372.93654018     -373.76303001
  entropy T*S    EENTRO =        -0.00000000
  eigenvalues    EBANDS =       -98.36486919
  atomic energy  EATOM  =       197.04175453
  Solvation  Ediel_sol  =         0.00000000
  ---------------------------------------------------
  free energy    TOTEN  =       -24.14609244 eV

  energy without entropy =      -24.14609244  energy(sigma->0) =      -24.14609244


--------------------------------------------------------------------------------------------------------




--------------------------------------- Iteration      1(   8)  ---------------------------------------


    POTLOK:  cpu time    0.1284: real time    0.1328
    SETDIJ:  cpu time    0.0026: real time    0.0026
    EDDIAG:  cpu time    0.0363: real time    0.0376
  RMM-DIIS:  cpu time    0.1485: real time    0.1531
    ORTHCH:  cpu time    0.0016: real time    0.0016
       DOS:  cpu time    0.0002: real time    0.0002
    CHARGE:  cpu time    0.0170: real time    0.0176
    MIXING:  cpu time    0.0051: real time    0.0052
    --------------------------------------------
      LOOP:  cpu time    0.3398: real time    0.3507

 eigenvalue-minimisations  :    64
 total energy-change (2. order) : 0.1477102E+00  (-0.1631800E-01)
 number of electron       8.0000003 magnetization 
 augmentation part        0.1890568 magnetization 

 Broyden mixing:
  rms(total) = 0.22439E-01    rms(broyden)= 0.22413E-01
  rms(prec ) = 0.52660E-01
  weight for this iteration     100.00

 eigenvalues of (default mixing * dielectric matrix)
  average eigenvalue GAMMA=   1.5544
  2.2474  0.9996  1.4162

 Free energy of the ion-electron system (eV)
  ---------------------------------------------------
  alpha Z        PSCENC =         0.24921791
  Ewald energy   TEWEN  =       129.51377229
  -Hartree energ DENC   =      -281.34109832
  -exchange      EXHF   =         0.00000000
  -V(xc)+E(xc)   XCENC  =        24.68946868
  PAW double counting   =       485.94691626     -486.74120198
  entropy T*S    EENTRO =        -0.00000000
  eigenvalues    EBANDS =       -93.35721164
  atomic energy  EATOM  =       197.04175453
  Solvation  Ediel_sol  =         0.00000000
  ---------------------------------------------------
  free energy    TOTEN  =       -23.99838228 eV

  energy without entropy =      -23.99838228  energy(sigma->0) =      -23.99838228


--------------------------------------------------------------------------------------------------------




--------------------------------------- Iteration      1(   9)  ---------------------------------------


    POTLOK:  cpu time    0.1282: real time    0.1322
    SETDIJ:  cpu time    0.0023: real time    0.0024
    EDDIAG:  cpu time    0.0380: real time    0.0392
  RMM-DIIS:  cpu time    0.1495: real time    0.1545
    ORTHCH:  cpu time    0.0016: real time    0.0016
       DOS:  cpu time    0.0002: real time    0.0002
    CHARGE:  cpu time    0.0162: real time    0.0167
    MIXING:  cpu time    0.0052: real time    0.0065
    --------------------------------------------
      LOOP:  cpu time    0.3411: real time    0.3532

 eigenvalue-minimisations  :    64
 total energy-change (2. order) : 0.5694674E-02  (-0.1123506E-02)
 number of electron       8.0000003 magnetization 
 augmentation part        0.1884734 magnetization 

 Broyden mixing:
  rms(total) = 0.19716E-01    rms(broyden)= 0.19712E-01
  rms(prec ) = 0.40502E-01
  weight for this iteration     100.00

 eigenvalues of (default mixing * dielectric matrix)
  average eigenvalue GAMMA=   2.0990
  1.0036  1.3829  3.0048  3.0048

 Free energy of the ion-electron system (eV)
  ---------------------------------------------------
  alpha Z        PSCENC =         0.24921791
  Ewald energy   TEWEN  =       129.51377229
  -Hartree energ DENC   =      -282.61406617
  -exchange      EXHF   =         0.00000000
  -V(xc)+E(xc)   XCENC  =        24.76035664
  PAW double counting   =       489.80529772     -490.60214911
  entropy T*S    EENTRO =        -0.00000000
  eigenvalues    EBANDS =       -92.14687142
  atomic energy  EATOM  =       197.04175453
  Solvation  Ediel_sol  =         0.00000000
  ---------------------------------------------------
  free energy    TOTEN  =       -23.99268760 eV

  energy without entropy =      -23.99268760  energy(sigma->0) =      -23.99268760


--------------------------------------------------------------------------------------------------------




--------------------------------------- Iteration      1(  10)  ---------------------------------------


    POTLOK:  cpu time    0.1249: real time    0.1293
    SETDIJ:  cpu time    0.0022: real time    0.0022
    EDDIAG:  cpu time    0.0375: real time    0.0385
  RMM-DIIS:  cpu time    0.1480: real time    0.1527
    ORTHCH:  cpu time    0.0020: real time    0.0020
       DOS:  cpu time    0.0003: real time    0.0003
    CHARGE:  cpu time    0.0161: real time    0.0166
    MIXING:  cpu time    0.0054: real time    0.0055
    --------------------------------------------
      LOOP:  cpu time    0.3363: real time    0.3470

 eigenvalue-minimisations  :    64
 total energy-change (2. order) : 0.5937816E-02  (-0.2347499E-02)
 number of electron       8.0000003 magnetization 
 augmentation part        0.1874428 magnetization 

 Broyden mixing:
  rms(total) = 0.27722E-01    rms(broyden)= 0.27720E-01
  rms(prec ) = 0.35105E-01
  weight for this iteration     100.00

 eigenvalues of (default mixing * dielectric matrix)
  average eigenvalue GAMMA=   1.7813
  3.0575  2.4367  1.2180  1.2180  0.9760

 Free energy of the ion-electron system (eV)
  ---------------------------------------------------
  alpha Z        PSCENC =         0.24921791
  Ewald energy   TEWEN  =       129.51377229
  -Hartree energ DENC   =      -284.80135434
  -exchange      EXHF   =         0.00000000
  -V(xc)+E(xc)   XCENC  =        24.82919933
  PAW double counting   =       473.41853012     -474.21884338
  entropy T*S    EENTRO =        -0.00000000
  eigenvalues    EBANDS =       -90.01902624
  atomic energy  EATOM  =       197.04175453
  Solvation  Ediel_sol  =         0.00000000
  ---------------------------------------------------
  free energy    TOTEN  =       -23.98674979 eV

  energy without entropy =      -23.98674979  energy(sigma->0) =      -23.98674979


--------------------------------------------------------------------------------------------------------




--------------------------------------- Iteration      1(  11)  ---------------------------------------


    POTLOK:  cpu time    0.1258: real time    0.1287
    SETDIJ:  cpu time    0.0024: real time    0.0024
    EDDIAG:  cpu time    0.0370: real time    0.0382
  RMM-DIIS:  cpu time    0.1472: real time    0.1521
    ORTHCH:  cpu time    0.0015: real time    0.0015
       DOS:  cpu time    0.0002: real time    0.0002
    CHARGE:  cpu time    0.0165: real time    0.0170
    MIXING:  cpu time    0.0050: real time    0.0050
    --------------------------------------------
      LOOP:  cpu time    0.3355: real time    0.3451

 eigenvalue-minimisations  :    64
 total energy-change (2. order) :-0.6329773E-03  (-0.6954444E-03)
 number of electron       8.0000003 magnetization 
 augmentation part        0.1877682 magnetization 

 Broyden mixing:
  rms(total) = 0.72790E-02    rms(broyden)= 0.72758E-02
  rms(prec ) = 0.13310E-01
  weight for this iteration     100.00

 eigenvalues of (default mixing * dielectric matrix)
  average eigenvalue GAMMA=   2.2686
  4.7672  3.1000  2.4338  1.3052  1.0027  1.0027

 Free energy of the ion-electron system (eV)
  ---------------------------------------------------
  alpha Z        PSCENC =         0.24921791
  Ewald energy   TEWEN  =       129.51377229
  -Hartree energ DENC   =      -284.71432041
  -exchange      EXHF   =         0.00000000
  -V(xc)+E(xc)   XCENC  =        24.84397308
  PAW double counting   =       482.78504905     -483.57822257
  entropy T*S    EENTRO =        -0.00000000
  eigenvalues    EBANDS =       -90.12860664
  atomic energy  EATOM  =       197.04175453
  Solvation  Ediel_sol  =         0.00000000
  ---------------------------------------------------
  free energy    TOTEN  =       -23.98738276 eV

  energy without entropy =      -23.98738276  energy(sigma->0) =      -23.98738276


--------------------------------------------------------------------------------------------------------




--------------------------------------- Iteration      1(  12)  ---------------------------------------


    POTLOK:  cpu time    0.1178: real time    0.1204
    SETDIJ:  cpu time    0.0022: real time    0.0022
    EDDIAG:  cpu time    0.0367: real time    0.0379
  RMM-DIIS:  cpu time    0.1459: real time    0.1511
    ORTHCH:  cpu time    0.0018: real time    0.0018
       DOS:  cpu time    0.0002: real time    0.0002
    CHARGE:  cpu time    0.0160: real time    0.0165
    MIXING:  cpu time    0.0052: real time    0.0054
    --------------------------------------------
      LOOP:  cpu time    0.3258: real time    0.3355

 eigenvalue-minimisations  :    64
 total energy-change (2. order) :-0.9730925E-02  (-0.3819910E-03)
 number of electron       8.0000003 magnetization 
 augmentation part        0.1880038 magnetization 

 Broyden mixing:
  rms(total) = 0.12421E-01    rms(broyden)= 0.12420E-01
  rms(prec ) = 0.16159E-01
  weight for this iteration     100.00

 eigenvalues of (default mixing * dielectric matrix)
  average eigenvalue GAMMA=   2.0139
  4.7781  2.9170  2.4323  1.2537  0.9953  0.9953  0.7255

 Free energy of the ion-electron system (eV)
  ---------------------------------------------------
  alpha Z        PSCENC =         0.24921791
  Ewald energy   TEWEN  =       129.51377229
  -Hartree energ DENC   =      -284.91128057
  -exchange      EXHF   =         0.00000000
  -V(xc)+E(xc)   XCENC  =        24.83648136
  PAW double counting   =       479.94124788     -480.73292385
  entropy T*S    EENTRO =        -0.00000000
  eigenvalues    EBANDS =       -89.93538324
  atomic energy  EATOM  =       197.04175453
  Solvation  Ediel_sol  =         0.00000000
  ---------------------------------------------------
  free energy    TOTEN  =       -23.99711369 eV

  energy without entropy =      -23.99711369  energy(sigma->0) =      -23.99711369


--------------------------------------------------------------------------------------------------------




--------------------------------------- Iteration      1(  13)  ---------------------------------------


    POTLOK:  cpu time    0.1121: real time    0.1166
    SETDIJ:  cpu time    0.0025: real time    0.0026
    EDDIAG:  cpu time    0.0354: real time    0.0365
  RMM-DIIS:  cpu time    0.1454: real time    0.1504
    ORTHCH:  cpu time    0.0016: real time    0.0016
       DOS:  cpu time    0.0002: real time    0.0002
    CHARGE:  cpu time    0.0168: real time    0.0172
    MIXING:  cpu time    0.0055: real time    0.0057
    --------------------------------------------
      LOOP:  cpu time    0.3195: real time    0.3308

 eigenvalue-minimisations  :    64
 total energy-change (2. order) :-0.4250605E-03  (-0.8186920E-04)
 number of electron       8.0000003 magnetization 
 augmentation part        0.1877854 magnetization 

 Broyden mixing:
  rms(total) = 0.54676E-02    rms(broyden)= 0.54674E-02
  rms(prec ) = 0.73091E-02
  weight for this iteration     100.00

 eigenvalues of (default mixing * dielectric matrix)
  average eigenvalue GAMMA=   2.3980
  6.0552  3.9848  2.5057  2.3145  1.2243  1.2243  0.9953  0.8797

 Free energy of the ion-electron system (eV)
  ---------------------------------------------------
  alpha Z        PSCENC =         0.24921791
  Ewald energy   TEWEN  =       129.51377229
  -Hartree energ DENC   =      -285.08838965
  -exchange      EXHF   =         0.00000000
  -V(xc)+E(xc)   XCENC  =        24.84161037
  PAW double counting   =       479.72545483     -480.51941270
  entropy T*S    EENTRO =        -0.00000000
  eigenvalues    EBANDS =       -89.76154633
  atomic energy  EATOM  =       197.04175453
  Solvation  Ediel_sol  =         0.00000000
  ---------------------------------------------------
  free energy    TOTEN  =       -23.99753875 eV

  energy without entropy =      -23.99753875  energy(sigma->0) =      -23.99753875


--------------------------------------------------------------------------------------------------------




--------------------------------------- Iteration      1(  14)  ---------------------------------------


    POTLOK:  cpu time    0.1149: real time    0.1195
    SETDIJ:  cpu time    0.0027: real time    0.0028
    EDDIAG:  cpu time    0.0364: real time    0.0376
  RMM-DIIS:  cpu time    0.1479: real time    0.1533
    ORTHCH:  cpu time    0.0015: real time    0.0015
       DOS:  cpu time    0.0002: real time    0.0002
    CHARGE:  cpu time    0.0174: real time    0.0180
    MIXING:  cpu time    0.0058: real time    0.0059
    --------------------------------------------
      LOOP:  cpu time    0.3268: real time    0.3388

 eigenvalue-minimisations  :    64
 total energy-change (2. order) :-0.2833081E-02  (-0.1601118E-03)
 number of electron       8.0000003 magnetization 
 augmentation part        0.1876132 magnetization 

 Broyden mixing:
  rms(total) = 0.35680E-02    rms(broyden)= 0.35661E-02
  rms(prec ) = 0.46580E-02
  weight for this iteration     100.00

 eigenvalues of (default mixing * dielectric matrix)
  average eigenvalue GAMMA=   2.3172
  6.3945  4.0639  2.4666  2.4036  1.2343  1.2343  0.9145  0.9949  1.1480

 Free energy of the ion-electron system (eV)
  ---------------------------------------------------
  alpha Z        PSCENC =         0.24921791
  Ewald energy   TEWEN  =       129.51377229
  -Hartree energ DENC   =      -285.12214886
  -exchange      EXHF   =         0.00000000
  -V(xc)+E(xc)   XCENC  =        24.83313512
  PAW double counting   =       478.93680566     -479.73255051
  entropy T*S    EENTRO =        -0.00000000
  eigenvalues    EBANDS =       -89.72035796
  atomic energy  EATOM  =       197.04175453
  Solvation  Ediel_sol  =         0.00000000
  ---------------------------------------------------
  free energy    TOTEN  =       -24.00037183 eV

  energy without entropy =      -24.00037183  energy(sigma->0) =      -24.00037183


--------------------------------------------------------------------------------------------------------




--------------------------------------- Iteration      1(  15)  ---------------------------------------


    POTLOK:  cpu time    0.1162: real time    0.1201
    SETDIJ:  cpu time    0.0020: real time    0.0028
    EDDIAG:  cpu time    0.0373: real time    0.0385
  RMM-DIIS:  cpu time    0.1493: real time    0.1537
    ORTHCH:  cpu time    0.0015: real time    0.0017
       DOS:  cpu time    0.0002: real time    0.0002
    CHARGE:  cpu time    0.0166: real time    0.0171
    MIXING:  cpu time    0.0058: real time    0.0060
    --------------------------------------------
      LOOP:  cpu time    0.3289: real time    0.3401

 eigenvalue-minimisations  :    64
 total energy-change (2. order) :-0.2333470E-03  (-0.8655210E-05)
 number of electron       8.0000003 magnetization 
 augmentation part        0.1876119 magnetization 

 Broyden mixing:
  rms(total) = 0.13056E-02    rms(broyden)= 0.13055E-02
  rms(prec ) = 0.17177E-02
  weight for this iteration     100.00

 eigenvalues of (default mixing * dielectric matrix)
  average eigenvalue GAMMA=   2.5244
  7.4585  4.8290  2.9147  2.5624  2.0301  1.2841  1.2841  0.9932  0.9932  0.8944

 Free energy of the ion-electron system (eV)
  ---------------------------------------------------
  alpha Z        PSCENC =         0.24921791
  Ewald energy   TEWEN  =       129.51377229
  -Hartree energ DENC   =      -285.06788374
  -exchange      EXHF   =         0.00000000
  -V(xc)+E(xc)   XCENC  =        24.83101417
  PAW double counting   =       479.06120790     -479.85600127
  entropy T*S    EENTRO =        -0.00000000
  eigenvalues    EBANDS =       -89.77368696
  atomic energy  EATOM  =       197.04175453
  Solvation  Ediel_sol  =         0.00000000
  ---------------------------------------------------
  free energy    TOTEN  =       -24.00060518 eV

  energy without entropy =      -24.00060518  energy(sigma->0) =      -24.00060518


--------------------------------------------------------------------------------------------------------




--------------------------------------- Iteration      1(  16)  ---------------------------------------


    POTLOK:  cpu time    0.1170: real time    0.1215
    SETDIJ:  cpu time    0.0025: real time    0.0026
    EDDIAG:  cpu time    0.0377: real time    0.0389
  RMM-DIIS:  cpu time    0.1504: real time    0.1565
    ORTHCH:  cpu time    0.0015: real time    0.0015
       DOS:  cpu time    0.0002: real time    0.0002
    CHARGE:  cpu time    0.0166: real time    0.0172
    MIXING:  cpu time    0.0070: real time    0.0071
    --------------------------------------------
      LOOP:  cpu time    0.3328: real time    0.3455

 eigenvalue-minimisations  :    64
 total energy-change (2. order) :-0.2059016E-03  (-0.9852564E-05)
 number of electron       8.0000003 magnetization 
 augmentation part        0.1876639 magnetization 

 Broyden mixing:
  rms(total) = 0.91660E-03    rms(broyden)= 0.91618E-03
  rms(prec ) = 0.12370E-02
  weight for this iteration     100.00

 eigenvalues of (default mixing * dielectric matrix)
  average eigenvalue GAMMA=   2.4486
  7.5678  4.7247  3.3420  2.3976  2.1967  1.3251  1.3251  1.0918  1.0918  0.9361
  0.9361

 Free energy of the ion-electron system (eV)
  ---------------------------------------------------
  alpha Z        PSCENC =         0.24921791
  Ewald energy   TEWEN  =       129.51377229
  -Hartree energ DENC   =      -285.04495492
  -exchange      EXHF   =         0.00000000
  -V(xc)+E(xc)   XCENC  =        24.83058470
  PAW double counting   =       479.10206398     -479.89636832
  entropy T*S    EENTRO =        -0.00000000
  eigenvalues    EBANDS =       -89.79688125
  atomic energy  EATOM  =       197.04175453
  Solvation  Ediel_sol  =         0.00000000
  ---------------------------------------------------
  free energy    TOTEN  =       -24.00081108 eV

  energy without entropy =      -24.00081108  energy(sigma->0) =      -24.00081108


--------------------------------------------------------------------------------------------------------




--------------------------------------- Iteration      1(  17)  ---------------------------------------


    POTLOK:  cpu time    0.1234: real time    0.1270
    SETDIJ:  cpu time    0.0024: real time    0.0024
    EDDIAG:  cpu time    0.0414: real time    0.0427
  RMM-DIIS:  cpu time    0.1518: real time    0.1578
    ORTHCH:  cpu time    0.0015: real time    0.0016
       DOS:  cpu time    0.0002: real time    0.0002
    CHARGE:  cpu time    0.0170: real time    0.0175
    MIXING:  cpu time    0.0061: real time    0.0063
    --------------------------------------------
      LOOP:  cpu time    0.3439: real time    0.3554

 eigenvalue-minimisations  :    64
 total energy-change (2. order) :-0.2914154E-04  (-0.3751634E-05)
 number of electron       8.0000003 magnetization 
 augmentation part        0.1876219 magnetization 

 Broyden mixing:
  rms(total) = 0.47414E-03    rms(broyden)= 0.47407E-03
  rms(prec ) = 0.67893E-03
  weight for this iteration     100.00

 eigenvalues of (default mixing * dielectric matrix)
  average eigenvalue GAMMA=   2.5531
  8.2717  5.1866  3.8442  2.5081  2.5081  1.8791  1.3050  1.3050  1.0227  0.9603
  0.9603  0.8863

 Free energy of the ion-electron system (eV)
  ---------------------------------------------------
  alpha Z        PSCENC =         0.24921791
  Ewald energy   TEWEN  =       129.51377229
  -Hartree energ DENC   =      -285.09553958
  -exchange      EXHF   =         0.00000000
  -V(xc)+E(xc)   XCENC  =        24.83303235
  PAW double counting   =       479.10676054     -479.90150367
  entropy T*S    EENTRO =        -0.00000000
  eigenvalues    EBANDS =       -89.74833459
  atomic energy  EATOM  =       197.04175453
  Solvation  Ediel_sol  =         0.00000000
  ---------------------------------------------------
  free energy    TOTEN  =       -24.00084022 eV

  energy without entropy =      -24.00084022  energy(sigma->0) =      -24.00084022


--------------------------------------------------------------------------------------------------------




--------------------------------------- Iteration      1(  18)  ---------------------------------------


    POTLOK:  cpu time    0.1237: real time    0.1278
    SETDIJ:  cpu time    0.0023: real time    0.0023
    EDDIAG:  cpu time    0.0371: real time    0.0384
  RMM-DIIS:  cpu time    0.1332: real time    0.1377
    ORTHCH:  cpu time    0.0015: real time    0.0015
       DOS:  cpu time    0.0002: real time    0.0002
    CHARGE:  cpu time    0.0168: real time    0.0173
    MIXING:  cpu time    0.0064: real time    0.0065
    --------------------------------------------
      LOOP:  cpu time    0.3211: real time    0.3317

 eigenvalue-minimisations  :    60
 total energy-change (2. order) :-0.1249549E-04  (-0.3565066E-06)
 number of electron       8.0000003 magnetization 
 augmentation part        0.1876316 magnetization 

 Broyden mixing:
  rms(total) = 0.74659E-04    rms(broyden)= 0.74654E-04
  rms(prec ) = 0.11779E-03
  weight for this iteration     100.00

 eigenvalues of (default mixing * dielectric matrix)
  average eigenvalue GAMMA=   2.5573
  8.3341  5.3612  3.8141  3.0796  2.4501  2.1414  1.5157  1.2998  1.2998  0.8906
  1.0736  0.9924  0.9924

 Free energy of the ion-electron system (eV)
  ---------------------------------------------------
  alpha Z        PSCENC =         0.24921791
  Ewald energy   TEWEN  =       129.51377229
  -Hartree energ DENC   =      -285.07731401
  -exchange      EXHF   =         0.00000000
  -V(xc)+E(xc)   XCENC  =        24.83208130
  PAW double counting   =       479.04757072     -479.84214966
  entropy T*S    EENTRO =        -0.00000000
  eigenvalues    EBANDS =       -89.76578580
  atomic energy  EATOM  =       197.04175453
  Solvation  Ediel_sol  =         0.00000000
  ---------------------------------------------------
  free energy    TOTEN  =       -24.00085272 eV

  energy without entropy =      -24.00085272  energy(sigma->0) =      -24.00085272


--------------------------------------------------------------------------------------------------------




--------------------------------------- Iteration      1(  19)  ---------------------------------------


    POTLOK:  cpu time    0.1226: real time    0.1268
    SETDIJ:  cpu time    0.0049: real time    0.0050
    EDDIAG:  cpu time    0.0372: real time    0.0378
  RMM-DIIS:  cpu time    0.1179: real time    0.1223
    ORTHCH:  cpu time    0.0015: real time    0.0015
       DOS:  cpu time    0.0004: real time    0.0004
    CHARGE:  cpu time    0.0170: real time    0.0175
    MIXING:  cpu time    0.0065: real time    0.0067
    --------------------------------------------
      LOOP:  cpu time    0.3080: real time    0.3180

 eigenvalue-minimisations  :    48
 total energy-change (2. order) :-0.3285101E-05  (-0.4203567E-07)
 number of electron       8.0000003 magnetization 
 augmentation part        0.1876359 magnetization 

 Broyden mixing:
  rms(total) = 0.19990E-04    rms(broyden)= 0.19931E-04
  rms(prec ) = 0.42565E-04
  weight for this iteration     100.00

 eigenvalues of (default mixing * dielectric matrix)
  average eigenvalue GAMMA=   2.5452
  8.4017  5.5186  4.0016  3.3994  2.4491  2.4491  1.9878  1.2930  1.2930  0.8970
  1.0172  0.9691  0.9781  0.9781

 Free energy of the ion-electron system (eV)
  ---------------------------------------------------
  alpha Z        PSCENC =         0.24921791
  Ewald energy   TEWEN  =       129.51377229
  -Hartree energ DENC   =      -285.07374542
  -exchange      EXHF   =         0.00000000
  -V(xc)+E(xc)   XCENC  =        24.83180510
  PAW double counting   =       479.03820043     -479.83276780
  entropy T*S    EENTRO =        -0.00000000
  eigenvalues    EBANDS =       -89.76909305
  atomic energy  EATOM  =       197.04175453
  Solvation  Ediel_sol  =         0.00000000
  ---------------------------------------------------
  free energy    TOTEN  =       -24.00085600 eV

  energy without entropy =      -24.00085600  energy(sigma->0) =      -24.00085600


--------------------------------------------------------------------------------------------------------




--------------------------------------- Iteration      1(  20)  ---------------------------------------


    POTLOK:  cpu time    0.1262: real time    0.1302
    SETDIJ:  cpu time    0.0023: real time    0.0024
    EDDIAG:  cpu time    0.0371: real time    0.0383
  RMM-DIIS:  cpu time    0.1078: real time    0.1115
    ORTHCH:  cpu time    0.0015: real time    0.0015
       DOS:  cpu time    0.0002: real time    0.0002
    CHARGE:  cpu time    0.0171: real time    0.0176
    MIXING:  cpu time    0.0072: real time    0.0073
    --------------------------------------------
      LOOP:  cpu time    0.2994: real time    0.3091

 eigenvalue-minimisations  :    44
 total energy-change (2. order) :-0.1114786E-05  (-0.8174562E-08)
 number of electron       8.0000003 magnetization 
 augmentation part        0.1876372 magnetization 

 Broyden mixing:
  rms(total) = 0.18895E-04    rms(broyden)= 0.18878E-04
  rms(prec ) = 0.34183E-04
  weight for this iteration     100.00

 eigenvalues of (default mixing * dielectric matrix)
  average eigenvalue GAMMA=   2.5349
  8.4475  5.4254  4.4455  2.9730  2.8667  2.2689  2.0523  2.0523  1.2954  1.2954
  0.8918  0.9704  1.0189  1.0100  1.0100

 Free energy of the ion-electron system (eV)
  ---------------------------------------------------
  alpha Z        PSCENC =         0.24921791
  Ewald energy   TEWEN  =       129.51377229
  -Hartree energ DENC   =      -285.07359384
  -exchange      EXHF   =         0.00000000
  -V(xc)+E(xc)   XCENC  =        24.83177201
  PAW double counting   =       479.04155597     -479.83612412
  entropy T*S    EENTRO =        -0.00000000
  eigenvalues    EBANDS =       -89.76921186
  atomic energy  EATOM  =       197.04175453
  Solvation  Ediel_sol  =         0.00000000
  ---------------------------------------------------
  free energy    TOTEN  =       -24.00085712 eV

  energy without entropy =      -24.00085712  energy(sigma->0) =      -24.00085712


--------------------------------------------------------------------------------------------------------




--------------------------------------- Iteration      1(  21)  ---------------------------------------


    POTLOK:  cpu time    0.1306: real time    0.1347
    SETDIJ:  cpu time    0.0025: real time    0.0026
    EDDIAG:  cpu time    0.0381: real time    0.0394
  RMM-DIIS:  cpu time    0.1198: real time    0.1235
    ORTHCH:  cpu time    0.0024: real time    0.0025
       DOS:  cpu time    0.0002: real time    0.0002
    --------------------------------------------
      LOOP:  cpu time    0.2937: real time    0.3028

 eigenvalue-minimisations  :    48
 total energy-change (2. order) :-0.7154520E-06  (-0.6126975E-08)
 number of electron       8.0000003 magnetization 
 augmentation part        0.1876372 magnetization 

 Free energy of the ion-electron system (eV)
  ---------------------------------------------------
  alpha Z        PSCENC =         0.24921791
  Ewald energy   TEWEN  =       129.51377229
  -Hartree energ DENC   =      -285.07380889
  -exchange      EXHF   =         0.00000000
  -V(xc)+E(xc)   XCENC  =        24.83180263
  PAW double counting   =       479.04529174     -479.83985731
  entropy T*S    EENTRO =        -0.00000000
  eigenvalues    EBANDS =       -89.76903073
  atomic energy  EATOM  =       197.04175453
  Solvation  Ediel_sol  =         0.00000000
  ---------------------------------------------------
  free energy    TOTEN  =       -24.00085783 eV

  energy without entropy =      -24.00085783  energy(sigma->0) =      -24.00085783


--------------------------------------------------------------------------------------------------------




 average (electrostatic) potential at core
  the test charge radii are     0.5201  0.6991
  (the norm of the test charge is              1.0000)
       1 -41.4644       2 -41.7014       3 -41.6117       4 -41.4095       5 -57.9094
 
 
 
 E-fermi :  -8.1762     XC(G=0):  -0.7129     alpha+bet : -0.2167


 k-point     1 :       0.2500    0.2500    0.2500
  band No.  band energies     occupation 
      1     -16.9454      2.00000
      2      -9.5048      2.00000
      3      -9.2982      2.00000
      4      -9.1362      2.00000
      5      -0.3009      0.00000
      6       0.5755      0.00000
      7       0.6842      0.00000
      8       0.7276      0.00000

 k-point     2 :      -0.2500    0.2500    0.2500
  band No.  band energies     occupation 
      1     -16.9454      2.00000
      2      -9.5048      2.00000
      3      -9.2982      2.00000
      4      -9.1361      2.00000
      5      -0.2984      0.00000
      6       0.5790      0.00000
      7       0.6756      0.00000
      8       0.7111      0.00000

 k-point     3 :       0.2500   -0.2500    0.2500
  band No.  band energies     occupation 
      1     -16.9454      2.00000
      2      -9.5048      2.00000
      3      -9.2982      2.00000
      4      -9.1361      2.00000
      5      -0.2975      0.00000
      6       0.5749      0.00000
      7       0.6704      0.00000
      8       0.7156      0.00000

 k-point     4 :      -0.2500   -0.2500    0.2500
  band No.  band energies     occupation 
      1     -16.9454      2.00000
      2      -9.5048      2.00000
      3      -9.2982      2.00000
      4      -9.1361      2.00000
      5      -0.3079      0.00000
      6       0.5924      0.00000
      7       0.7062      0.00000
      8       0.7374      0.00000


--------------------------------------------------------------------------------------------------------


 soft charge-density along one line, spin component           1
         0         1         2         3         4         5         6         7         8         9
 total charge-density along one line
 
 pseudopotential strength for first ion, spin component:           1
 -2.341  -4.033  -0.001  -0.001   0.001
 -4.033  -6.863  -0.003  -0.004   0.002
 -0.001  -0.003  -0.338   0.002  -0.001
 -0.001  -0.004   0.002  -0.336  -0.001
  0.001   0.002  -0.001  -0.001  -0.338
 total augmentation occupancy for first ion, spin component:           1
  3.541  -0.637   0.226   0.339  -0.135
 -0.637   0.129  -0.042  -0.062   0.025
  0.226  -0.042   0.021   0.018  -0.007
  0.339  -0.062   0.018   0.036  -0.011
 -0.135   0.025  -0.007  -0.011   0.013


------------------------ aborting loop because EDIFF is reached ----------------------------------------


    CHARGE:  cpu time    0.0178: real time    0.0184
    FORLOC:  cpu time    0.0132: real time    0.0134
    FORNL :  cpu time    0.0205: real time    0.0209
    STRESS:  cpu time    0.1662: real time    0.1679
    FORCOR:  cpu time    0.1514: real time    0.1536
    FORHAR:  cpu time    0.0425: real time    0.0429
    MIXING:  cpu time    0.0069: real time    0.0069
    OFIELD:  cpu time    0.0001: real time    0.0001

  FORCE on cell =-STRESS in cart. coord.  units (eV):
  Direction    XX          YY          ZZ          XY          YZ          ZX
  --------------------------------------------------------------------------------------
  Alpha Z     0.24922     0.24922     0.24922
  Ewald      45.59653    42.68563    41.23159     3.28735    -1.35863    -1.80181
  Hartree    95.91657    96.40054    92.75925     1.11034    -0.56859    -0.69446
  E(xc)     -27.31008   -27.32221   -27.29173     0.01314    -0.00764    -0.00870
  Local    -199.53534  -198.21503  -192.79850    -3.80651     1.76901     2.23325
  n-local   -16.18122   -16.10580   -16.02478    -0.00892    -0.02416    -0.00026
  augment     0.10488     0.11513     0.11496    -0.00458     0.00078     0.00184
  Kinetic   101.86605   102.41827   100.92328    -0.64194     0.41881     0.40902
  Fock        0.00000     0.00000     0.00000     0.00000     0.00000     0.00000
  -------------------------------------------------------------------------------------
  Total       0.70660     0.22575    -0.83671    -0.05113     0.22958     0.13889
  in kB       1.16466     0.37210    -1.37911    -0.08427     0.37841     0.22892
  external pressure =        0.05 kB  Pullay stress =        0.00 kB

  kinetic pressure (ideal gas correction) =      0.00 kB
  total pressure  =      0.05 kB
  Total+kin.     1.165       0.372      -1.379      -0.084       0.378       0.229

 VOLUME and BASIS-vectors are now :
 -----------------------------------------------------------------------------
  energy-cutoff  :      400.00
  volume of cell :      972.04
      direct lattice vectors                 reciprocal lattice vectors
     9.830961504  0.000000000  0.000000000     0.101719450 -0.003065792  0.001991379
     0.293472325  9.737072822  0.000000000     0.000000000  0.102700269  0.001589093
    -0.203533371 -0.157122836 10.154570222     0.000000000  0.000000000  0.098477826

  length of vectors
     9.830961504  9.741494400 10.157825053     0.101785123  0.102712563  0.098477826


 FORCES acting on ions
    electron-ion (+dipol)            ewald-force                    non-local-force                 convergence-correction
 -----------------------------------------------------------------------------------------------
   -.167E+02 0.281E+02 0.417E+02   0.184E+02 -.311E+02 -.459E+02   -.172E+01 0.286E+01 0.434E+01   0.752E-04 -.133E-03 -.226E-03
   0.537E+02 -.620E+01 0.369E+01   -.605E+02 0.710E+01 -.419E+01   0.587E+01 -.636E+00 0.403E+00   -.266E-03 0.313E-04 -.301E-04
   -.253E+02 -.472E+02 0.163E+01   0.282E+02 0.528E+02 -.172E+01   -.273E+01 -.504E+01 0.220E+00   0.121E-03 0.237E-03 -.204E-04
   -.103E+02 0.246E+02 -.453E+02   0.114E+02 -.270E+02 0.495E+02   -.101E+01 0.249E+01 -.461E+01   0.480E-04 -.126E-03 0.241E-03
   -.199E+01 0.148E+01 -.208E+01   0.241E+01 -.184E+01 0.234E+01   0.252E+00 -.347E+00 -.653E-01   -.416E-04 0.118E-04 -.816E-04
 -----------------------------------------------------------------------------------------------
   -.656E+00 0.671E+00 -.287E+00   0.355E-14 0.000E+00 0.711E-14   0.656E+00 -.670E+00 0.287E+00   -.633E-04 0.214E-04 -.117E-03
 
 
 POSITION                                       TOTAL-FORCE (eV/Angst)
 -----------------------------------------------------------------------------------
      5.33536      3.90496      3.66223         0.027410     -0.200738      0.129586
      3.93057      4.60776      4.45278        -0.942644      0.266866     -0.100079
      5.50015      5.43819      4.49180         0.140574      0.547198      0.136124
      5.20721      3.96644      5.48072         0.104128      0.102344     -0.365759
      4.99032      4.48597      4.52704         0.670046     -0.714987      0.200243
 -----------------------------------------------------------------------------------
    total drift:                               -0.000486      0.000682      0.000115


--------------------------------------------------------------------------------------------------------



  FREE ENERGIE OF THE ION-ELECTRON SYSTEM (eV)
  ---------------------------------------------------
  free  energy   TOTEN  =       -24.00085783 eV

  energy  without entropy=      -24.00085783  energy(sigma->0) =      -24.00085783
 


--------------------------------------------------------------------------------------------------------


    POTLOK:  cpu time    0.1312: real time    0.1323


--------------------------------------------------------------------------------------------------------


 stress matrix after NEB project (eV)
      0.70660     -0.05113      0.13889
     -0.05113      0.22575      0.22958
      0.13889      0.22958     -0.83671
  FORCES: max atom, RMS     1.000132    0.710032
  FORCE total and by dimension    1.587680    0.942644
  Stress total and by dimension    1.183027    0.836709
           RANDOM_SEED =         581342093                0                0
           RANDOM_SEED =         581342093               30                0
   IONSTEP:  cpu time    0.0037: real time    0.0071

  ENERGY OF THE ELECTRON-ION-THERMOSTAT SYSTEM (eV)
  ---------------------------------------------------
% ion-electron   TOTEN  =       -24.000858  see above
  kinetic energy EKIN   =         0.000482
  kin. lattice  EKIN_LAT=         0.000000  (temperature    0.93 K)
  nose potential ES     =         0.000000
  nose kinetic   EPS    =         0.000000
  ---------------------------------------------------
  total energy   ETOTAL =       -24.000376 eV

  maximum distance moved by ions :      0.24E-03

    WAVPRE:  cpu time    0.0393: real time    0.0398
    FEWALD:  cpu time    0.0005: real time    0.0005
    ORTHCH:  cpu time    0.0092: real time    0.0092
     LOOP+:  cpu time    7.0004: real time    7.2446


--------------------------------------- Iteration      2(   1)  ---------------------------------------


    POTLOK:  cpu time    0.1310: real time    0.1322
    SETDIJ:  cpu time    0.0024: real time    0.0024
     EDDAV:  cpu time    0.1427: real time    0.1443
       DOS:  cpu time    0.0002: real time    0.0002
    CHARGE:  cpu time    0.0175: real time    0.0177
    MIXING:  cpu time    0.0068: real time    0.0068
    --------------------------------------------
      LOOP:  cpu time    0.3006: real time    0.3038

 eigenvalue-minimisations  :    64
 total energy-change (2. order) :-0.3714341E-02  (-0.4201687E-03)
 number of electron       8.0000003 magnetization 
 augmentation part        0.1873728 magnetization 

 Broyden mixing:
  rms(total) = 0.31074E-02    rms(broyden)= 0.31049E-02
  rms(prec ) = 0.37843E-02
  weight for this iteration     100.00

 Free energy of the ion-electron system (eV)
  ---------------------------------------------------
  alpha Z        PSCENC =         0.24921791
  Ewald energy   TEWEN  =       129.33714460
  -Hartree energ DENC   =      -284.97761006
  -exchange      EXHF   =         0.00000000
  -V(xc)+E(xc)   XCENC  =        24.82687745
  PAW double counting   =       479.04287445     -479.83746234
  entropy T*S    EENTRO =        -0.00000000
  eigenvalues    EBANDS =       -89.68736799
  atomic energy  EATOM  =       197.04175453
  Solvation  Ediel_sol  =         0.00000000
  ---------------------------------------------------
  free energy    TOTEN  =       -24.00457146 eV

  energy without entropy =      -24.00457146  energy(sigma->0) =      -24.00457146


--------------------------------------------------------------------------------------------------------




--------------------------------------- Iteration      2(   2)  ---------------------------------------


    POTLOK:  cpu time    0.1348: real time    0.1361
    SETDIJ:  cpu time    0.0022: real time    0.0022
    EDDIAG:  cpu time    0.0434: real time    0.0439
  RMM-DIIS:  cpu time    0.1553: real time    0.1569
    ORTHCH:  cpu time    0.0024: real time    0.0024
       DOS:  cpu time    0.0002: real time    0.0002
    CHARGE:  cpu time    0.0171: real time    0.0173
    MIXING:  cpu time    0.0049: real time    0.0049
    --------------------------------------------
      LOOP:  cpu time    0.3602: real time    0.3639

 eigenvalue-minimisations  :    64
 total energy-change (2. order) : 0.1188983E-04  (-0.1120296E-04)
 number of electron       8.0000003 magnetization 
 augmentation part        0.1873879 magnetization 

 Broyden mixing:
  rms(total) = 0.17768E-02    rms(broyden)= 0.17761E-02
  rms(prec ) = 0.21010E-02
  weight for this iteration     100.00

 eigenvalues of (default mixing * dielectric matrix)
  average eigenvalue GAMMA=   1.8736
  1.8736

 Free energy of the ion-electron system (eV)
  ---------------------------------------------------
  alpha Z        PSCENC =         0.24921791
  Ewald energy   TEWEN  =       129.33714460
  -Hartree energ DENC   =      -284.94181282
  -exchange      EXHF   =         0.00000000
  -V(xc)+E(xc)   XCENC  =        24.82489422
  PAW double counting   =       478.45788242     -479.25205816
  entropy T*S    EENTRO =        -0.00000000
  eigenvalues    EBANDS =       -89.72158226
  atomic energy  EATOM  =       197.04175453
  Solvation  Ediel_sol  =         0.00000000
  ---------------------------------------------------
  free energy    TOTEN  =       -24.00455957 eV

  energy without entropy =      -24.00455957  energy(sigma->0) =      -24.00455957


--------------------------------------------------------------------------------------------------------




--------------------------------------- Iteration      2(   3)  ---------------------------------------


    POTLOK:  cpu time    0.1272: real time    0.1287
    SETDIJ:  cpu time    0.0024: real time    0.0023
    EDDIAG:  cpu time    0.0384: real time    0.0388
  RMM-DIIS:  cpu time    0.1540: real time    0.1557
    ORTHCH:  cpu time    0.0025: real time    0.0025
       DOS:  cpu time    0.0002: real time    0.0002
    CHARGE:  cpu time    0.0179: real time    0.0181
    MIXING:  cpu time    0.0050: real time    0.0050
    --------------------------------------------
      LOOP:  cpu time    0.3475: real time    0.3514

 eigenvalue-minimisations  :    64
 total energy-change (2. order) : 0.2191477E-05  (-0.3682985E-05)
 number of electron       8.0000003 magnetization 
 augmentation part        0.1874295 magnetization 

 Broyden mixing:
  rms(total) = 0.54827E-03    rms(broyden)= 0.54768E-03
  rms(prec ) = 0.67695E-03
  weight for this iteration     100.00

 eigenvalues of (default mixing * dielectric matrix)
  average eigenvalue GAMMA=   1.4925
  1.0797  1.9052

 Free energy of the ion-electron system (eV)
  ---------------------------------------------------
  alpha Z        PSCENC =         0.24921791
  Ewald energy   TEWEN  =       129.33714460
  -Hartree energ DENC   =      -284.91546142
  -exchange      EXHF   =         0.00000000
  -V(xc)+E(xc)   XCENC  =        24.82343269
  PAW double counting   =       477.99424782     -478.78805845
  entropy T*S    EENTRO =        -0.00000000
  eigenvalues    EBANDS =       -89.74683504
  atomic energy  EATOM  =       197.04175453
  Solvation  Ediel_sol  =         0.00000000
  ---------------------------------------------------
  free energy    TOTEN  =       -24.00455738 eV

  energy without entropy =      -24.00455738  energy(sigma->0) =      -24.00455738


--------------------------------------------------------------------------------------------------------




--------------------------------------- Iteration      2(   4)  ---------------------------------------


    POTLOK:  cpu time    0.1284: real time    0.1297
    SETDIJ:  cpu time    0.0024: real time    0.0024
    EDDIAG:  cpu time    0.0408: real time    0.0414
  RMM-DIIS:  cpu time    0.1269: real time    0.1282
    ORTHCH:  cpu time    0.0024: real time    0.0025
       DOS:  cpu time    0.0002: real time    0.0002
    --------------------------------------------
      LOOP:  cpu time    0.3011: real time    0.3042

 eigenvalue-minimisations  :    48
 total energy-change (2. order) : 0.4474305E-06  (-0.9286496E-07)
 number of electron       8.0000003 magnetization 
 augmentation part        0.1874295 magnetization 

 Free energy of the ion-electron system (eV)
  ---------------------------------------------------
  alpha Z        PSCENC =         0.24921791
  Ewald energy   TEWEN  =       129.33714460
  -Hartree energ DENC   =      -284.92299300
  -exchange      EXHF   =         0.00000000
  -V(xc)+E(xc)   XCENC  =        24.82376430
  PAW double counting   =       477.96916552     -478.76306830
  entropy T*S    EENTRO =        -0.00000000
  eigenvalues    EBANDS =       -89.73954248
  atomic energy  EATOM  =       197.04175453
  Solvation  Ediel_sol  =         0.00000000
  ---------------------------------------------------
  free energy    TOTEN  =       -24.00455693 eV

  energy without entropy =      -24.00455693  energy(sigma->0) =      -24.00455693


--------------------------------------------------------------------------------------------------------




 average (electrostatic) potential at core
  the test charge radii are     0.5201  0.6991
  (the norm of the test charge is              1.0000)
       1 -41.4656       2 -41.6804       3 -41.6010       4 -41.4167       5 -57.9137
 
 
 
 E-fermi :  -8.1676     XC(G=0):  -0.6936     alpha+bet : -0.2167


 k-point     1 :       0.2500    0.2500    0.2500
  band No.  band energies     occupation 
      1     -16.9392      2.00000
      2      -9.4949      2.00000
      3      -9.2986      2.00000
      4      -9.1371      2.00000
      5      -0.2948      0.00000
      6       0.5955      0.00000
      7       0.6962      0.00000
      8       0.7390      0.00000

 k-point     2 :      -0.2500    0.2500    0.2500
  band No.  band energies     occupation 
      1     -16.9392      2.00000
      2      -9.4949      2.00000
      3      -9.2986      2.00000
      4      -9.1370      2.00000
      5      -0.2922      0.00000
      6       0.5948      0.00000
      7       0.6887      0.00000
      8       0.7250      0.00000

 k-point     3 :       0.2500   -0.2500    0.2500
  band No.  band energies     occupation 
      1     -16.9392      2.00000
      2      -9.4949      2.00000
      3      -9.2986      2.00000
      4      -9.1371      2.00000
      5      -0.2913      0.00000
      6       0.5914      0.00000
      7       0.6847      0.00000
      8       0.7278      0.00000

 k-point     4 :      -0.2500   -0.2500    0.2500
  band No.  band energies     occupation 
      1     -16.9392      2.00000
      2      -9.4949      2.00000
      3      -9.2986      2.00000
      4      -9.1370      2.00000
      5      -0.3015      0.00000
      6       0.6128      0.00000
      7       0.7168      0.00000
      8       0.7485      0.00000


--------------------------------------------------------------------------------------------------------


 soft charge-density along one line, spin component           1
         0         1         2         3         4         5         6         7         8         9
 total charge-density along one line
 
 pseudopotential strength for first ion, spin component:           1
 -2.341  -4.033  -0.001  -0.001   0.001
 -4.033  -6.863  -0.003  -0.004   0.002
 -0.001  -0.003  -0.338   0.002  -0.001
 -0.001  -0.004   0.002  -0.336  -0.001
  0.001   0.002  -0.001  -0.001  -0.338
 total augmentation occupancy for first ion, spin component:           1
  3.542  -0.637   0.226   0.339  -0.135
 -0.637   0.129  -0.042  -0.062   0.025
  0.226  -0.042   0.021   0.018  -0.007
  0.339  -0.062   0.018   0.036  -0.011
 -0.135   0.025  -0.007  -0.011   0.013


------------------------ aborting loop because EDIFF is reached ----------------------------------------


    CHARGE:  cpu time    0.0170: real time    0.0172
    FORLOC:  cpu time    0.0136: real time    0.0137
    FORNL :  cpu time    0.0224: real time    0.0225
    STRESS:  cpu time    0.1684: real time    0.1694
    FORCOR:  cpu time    0.1311: real time    0.1324
    FORHAR:  cpu time    0.0460: real time    0.0464
    MIXING:  cpu time    0.0057: real time    0.0058
    OFIELD:  cpu time    0.0001: real time    0.0001

  FORCE on cell =-STRESS in cart. coord.  units (eV):
  Direction    XX          YY          ZZ          XY          YZ          ZX
  --------------------------------------------------------------------------------------
  Alpha Z     0.24922     0.24922     0.24922
  Ewald      45.43715    42.68828    41.21169     3.21421    -1.35024    -1.76759
  Hartree    95.88978    96.36699    92.67345     1.09982    -0.55918    -0.68412
  E(xc)     -27.30101   -27.31324   -27.28370     0.01293    -0.00745    -0.00850
  Local    -199.41581  -198.18199  -192.66242    -3.74344     1.74802     2.19391
  n-local   -16.15593   -16.08757   -16.01267    -0.00764    -0.02286    -0.00020
  augment     0.10591     0.11537     0.11479    -0.00438     0.00083     0.00181
  Kinetic   101.79510   102.35281   100.90269    -0.63211     0.40853     0.39970
  Fock        0.00000     0.00000     0.00000     0.00000     0.00000     0.00000
[...]
      5.50399      5.46795      4.50264        -0.242976     -0.330463      0.063260
      5.21672      3.97038      5.46034         0.108576     -0.142975      0.227788
      4.99289      4.48297      4.52752        -0.573979      0.560830     -0.368628
 -----------------------------------------------------------------------------------
    total drift:                               -0.000512     -0.000067     -0.000197


--------------------------------------------------------------------------------------------------------



  FREE ENERGIE OF THE ION-ELECTRON SYSTEM (eV)
  ---------------------------------------------------
  free  energy   TOTEN  =       -24.01612100 eV

  energy  without entropy=      -24.01612100  energy(sigma->0) =      -24.01612100
 
 d Force =-0.4458420E-02[-0.540E-02,-0.352E-02]  d Energy =-0.4461972E-02 0.355E-05
 d Force = 0.4096659E+00[ 0.408E+00, 0.411E+00]  d Ewald  = 0.4096635E+00 0.238E-05


--------------------------------------------------------------------------------------------------------


    POTLOK:  cpu time    0.1283: real time    0.1325


--------------------------------------------------------------------------------------------------------


 stress matrix after NEB project (eV)
     -1.24743     -0.19558      0.04631
     -0.19558     -0.59461     -0.06768
      0.04631     -0.06768     -0.20263
  FORCES: max atom, RMS     0.883101    0.554792
  FORCE total and by dimension    1.240553    0.703582
  Stress total and by dimension    1.428508    1.247426
           RANDOM_SEED =         581342093               30                0
   IONSTEP:  cpu time    0.0002: real time    0.0002

  ENERGY OF THE ELECTRON-ION-THERMOSTAT SYSTEM (eV)
  ---------------------------------------------------
% ion-electron   TOTEN  =       -24.016121  see above
  kinetic energy EKIN   =         0.015561
  kin. lattice  EKIN_LAT=         0.000000  (temperature   30.10 K)
  nose potential ES     =         0.000000
  nose kinetic   EPS    =         0.000000
  ---------------------------------------------------
  total energy   ETOTAL =       -24.000560 eV

  maximum distance moved by ions :      0.49E-03

    WAVPRE:  cpu time    0.0466: real time    0.0476
    FEWALD:  cpu time    0.0009: real time    0.0009
    ORTHCH:  cpu time    0.0090: real time    0.0091
 Prediction of Wavefunctions ALPHA= 2.148 BETA=-1.182
     LOOP+:  cpu time    2.8150: real time    2.8944


--------------------------------------- Iteration     10(   1)  ---------------------------------------


    POTLOK:  cpu time    0.1245: real time    0.1282
    SETDIJ:  cpu time    0.0024: real time    0.0025
     EDDAV:  cpu time    0.1634: real time    0.1675
       DOS:  cpu time    0.0002: real time    0.0002
    CHARGE:  cpu time    0.0164: real time    0.0168
    MIXING:  cpu time    0.0045: real time    0.0046
    --------------------------------------------
      LOOP:  cpu time    0.3115: real time    0.3199

 eigenvalue-minimisations  :    72
 total energy-change (2. order) : 0.3954786E-02  (-0.3953468E-04)
 number of electron       7.9999999 magnetization 
 augmentation part        0.1830718 magnetization 

 Broyden mixing:
  rms(total) = 0.16643E-03    rms(broyden)= 0.16609E-03
  rms(prec ) = 0.19637E-03
  weight for this iteration     100.00

 Free energy of the ion-electron system (eV)
  ---------------------------------------------------
  alpha Z        PSCENC =         0.24921791
  Ewald energy   TEWEN  =       125.68843521
  -Hartree energ DENC   =      -281.72342857
  -exchange      EXHF   =         0.00000000
  -V(xc)+E(xc)   XCENC  =        24.65486963
  PAW double counting   =       456.08611764     -456.86723980
  entropy T*S    EENTRO =        -0.00000000
  eigenvalues    EBANDS =       -89.14189253
  atomic energy  EATOM  =       197.04175453
  Solvation  Ediel_sol  =         0.00000000
  ---------------------------------------------------
  free energy    TOTEN  =       -24.01216598 eV

  energy without entropy =      -24.01216598  energy(sigma->0) =      -24.01216598


--------------------------------------------------------------------------------------------------------




--------------------------------------- Iteration     10(   2)  ---------------------------------------


    POTLOK:  cpu time    0.1304: real time    0.1351
    SETDIJ:  cpu time    0.0024: real time    0.0024
    EDDIAG:  cpu time    0.0378: real time    0.0389
  RMM-DIIS:  cpu time    0.1493: real time    0.1542
    ORTHCH:  cpu time    0.0023: real time    0.0023
       DOS:  cpu time    0.0002: real time    0.0002
    CHARGE:  cpu time    0.0168: real time    0.0173
    MIXING:  cpu time    0.0047: real time    0.0047
    --------------------------------------------
      LOOP:  cpu time    0.3439: real time    0.3551

 eigenvalue-minimisations  :    64
 total energy-change (2. order) :-0.1323840E-05  (-0.8640328E-06)
 number of electron       7.9999999 magnetization 
 augmentation part        0.1830754 magnetization 

 Broyden mixing:
  rms(total) = 0.11259E-03    rms(broyden)= 0.11230E-03
  rms(prec ) = 0.12993E-03
  weight for this iteration     100.00

 eigenvalues of (default mixing * dielectric matrix)
  average eigenvalue GAMMA=   0.6240
  0.6240

 Free energy of the ion-electron system (eV)
  ---------------------------------------------------
  alpha Z        PSCENC =         0.24921791
  Ewald energy   TEWEN  =       125.68843521
  -Hartree energ DENC   =      -281.72487262
  -exchange      EXHF   =         0.00000000
  -V(xc)+E(xc)   XCENC  =        24.65492314
  PAW double counting   =       456.07979078     -456.86091089
  entropy T*S    EENTRO =        -0.00000000
  eigenvalues    EBANDS =       -89.14050537
  atomic energy  EATOM  =       197.04175453
  Solvation  Ediel_sol  =         0.00000000
  ---------------------------------------------------
  free energy    TOTEN  =       -24.01216730 eV

  energy without entropy =      -24.01216730  energy(sigma->0) =      -24.01216730


--------------------------------------------------------------------------------------------------------




--------------------------------------- Iteration     10(   3)  ---------------------------------------


    POTLOK:  cpu time    0.1226: real time    0.1269
    SETDIJ:  cpu time    0.0027: real time    0.0027
    EDDIAG:  cpu time    0.0363: real time    0.0373
  RMM-DIIS:  cpu time    0.1157: real time    0.1196
    ORTHCH:  cpu time    0.0018: real time    0.0018
       DOS:  cpu time    0.0002: real time    0.0002
    CHARGE:  cpu time    0.0169: real time    0.0173
    MIXING:  cpu time    0.0048: real time    0.0049
    --------------------------------------------
      LOOP:  cpu time    0.3009: real time    0.3107

 eigenvalue-minimisations  :    46
 total energy-change (2. order) :-0.2406811E-06  (-0.1288129E-07)
 number of electron       7.9999999 magnetization 
 augmentation part        0.1830754 magnetization 

 Broyden mixing:
  rms(total) = 0.93784E-04    rms(broyden)= 0.93762E-04
  rms(prec ) = 0.10975E-03
  weight for this iteration     100.00

 eigenvalues of (default mixing * dielectric matrix)
  average eigenvalue GAMMA=   1.7395
  1.1089  2.3700

 Free energy of the ion-electron system (eV)
  ---------------------------------------------------
  alpha Z        PSCENC =         0.24921791
  Ewald energy   TEWEN  =       125.68843521
  -Hartree energ DENC   =      -281.72453228
  -exchange      EXHF   =         0.00000000
  -V(xc)+E(xc)   XCENC  =        24.65491382
  PAW double counting   =       456.06533764     -456.84645404
  entropy T*S    EENTRO =        -0.00000000
  eigenvalues    EBANDS =       -89.14084033
  atomic energy  EATOM  =       197.04175453
  Solvation  Ediel_sol  =         0.00000000
  ---------------------------------------------------
  free energy    TOTEN  =       -24.01216754 eV

  energy without entropy =      -24.01216754  energy(sigma->0) =      -24.01216754


--------------------------------------------------------------------------------------------------------




--------------------------------------- Iteration     10(   4)  ---------------------------------------


    POTLOK:  cpu time    0.1233: real time    0.1274
    SETDIJ:  cpu time    0.0021: real time    0.0021
    EDDIAG:  cpu time    0.0372: real time    0.0382
  RMM-DIIS:  cpu time    0.1207: real time    0.1241
    ORTHCH:  cpu time    0.0023: real time    0.0023
       DOS:  cpu time    0.0002: real time    0.0002
    --------------------------------------------
      LOOP:  cpu time    0.2858: real time    0.2944

 eigenvalue-minimisations  :    48
 total energy-change (2. order) :-0.8478301E-06  (-0.1147342E-07)
 number of electron       7.9999999 magnetization 
 augmentation part        0.1830754 magnetization 

 Free energy of the ion-electron system (eV)
  ---------------------------------------------------
  alpha Z        PSCENC =         0.24921791
  Ewald energy   TEWEN  =       125.68843521
  -Hartree energ DENC   =      -281.72317804
  -exchange      EXHF   =         0.00000000
  -V(xc)+E(xc)   XCENC  =        24.65487473
  PAW double counting   =       456.01954088     -456.80064251
  entropy T*S    EENTRO =        -0.00000000
  eigenvalues    EBANDS =       -89.14217110
  atomic energy  EATOM  =       197.04175453
  Solvation  Ediel_sol  =         0.00000000
  ---------------------------------------------------
  free energy    TOTEN  =       -24.01216839 eV

  energy without entropy =      -24.01216839  energy(sigma->0) =      -24.01216839


--------------------------------------------------------------------------------------------------------




 average (electrostatic) potential at core
  the test charge radii are     0.5201  0.6991
  (the norm of the test charge is              1.0000)
       1 -41.4969       2 -41.2926       3 -41.3840       4 -41.5922       5 -58.0082
 
 
 
 E-fermi :  -8.1896     XC(G=0):  -0.7142     alpha+bet : -0.2167


 k-point     1 :       0.2500    0.2500    0.2500
  band No.  band energies     occupation 
      1     -16.8189      2.00000
      2      -9.3576      2.00000
      3      -9.2221      2.00000
      4      -9.1726      2.00000
      5      -0.3222      0.00000
      6       0.5724      0.00000
      7       0.6824      0.00000
      8       0.7181      0.00000

 k-point     2 :      -0.2500    0.2500    0.2500
  band No.  band energies     occupation 
      1     -16.8188      2.00000
      2      -9.3576      2.00000
      3      -9.2220      2.00000
      4      -9.1726      2.00000
      5      -0.3197      0.00000
      6       0.5707      0.00000
      7       0.6742      0.00000
      8       0.7067      0.00000

 k-point     3 :       0.2500   -0.2500    0.2500
  band No.  band energies     occupation 
      1     -16.8188      2.00000
      2      -9.3577      2.00000
      3      -9.2220      2.00000
      4      -9.1726      2.00000
      5      -0.3191      0.00000
      6       0.5700      0.00000
      7       0.6699      0.00000
      8       0.7084      0.00000

 k-point     4 :      -0.2500   -0.2500    0.2500
  band No.  band energies     occupation 
      1     -16.8188      2.00000
      2      -9.3577      2.00000
      3      -9.2221      2.00000
      4      -9.1725      2.00000
      5      -0.3290      0.00000
      6       0.5922      0.00000
      7       0.7004      0.00000
      8       0.7269      0.00000


--------------------------------------------------------------------------------------------------------


 soft charge-density along one line, spin component           1
         0         1         2         3         4         5         6         7         8         9
 total charge-density along one line
 
 pseudopotential strength for first ion, spin component:           1
 -2.341  -4.034  -0.001  -0.001   0.001
 -4.034  -6.865  -0.003  -0.004   0.002
 -0.001  -0.003  -0.337   0.002  -0.001
 -0.001  -0.004   0.002  -0.336  -0.001
  0.001   0.002  -0.001  -0.001  -0.338
 total augmentation occupancy for first ion, spin component:           1
  3.546  -0.639   0.234   0.336  -0.135
 -0.639   0.129  -0.043  -0.062   0.025
  0.234  -0.043   0.022   0.019  -0.007
  0.336  -0.062   0.019   0.035  -0.011
 -0.135   0.025  -0.007  -0.011   0.013


------------------------ aborting loop because EDIFF is reached ----------------------------------------


    CHARGE:  cpu time    0.0173: real time    0.0178
    FORLOC:  cpu time    0.0134: real time    0.0136
    FORNL :  cpu time    0.0220: real time    0.0223
    STRESS:  cpu time    0.1698: real time    0.1720
    FORCOR:  cpu time    0.1286: real time    0.1324
    FORHAR:  cpu time    0.0435: real time    0.0455
    MIXING:  cpu time    0.0050: real time    0.0051
    OFIELD:  cpu time    0.0001: real time    0.0000

  FORCE on cell =-STRESS in cart. coord.  units (eV):
  Direction    XX          YY          ZZ          XY          YZ          ZX
  --------------------------------------------------------------------------------------
  Alpha Z     0.24922     0.24922     0.24922
  Ewald      42.03592    43.57780    40.07470     0.87881    -0.82036    -0.50344
  Hartree    95.20311    95.88547    90.63601     0.65750    -0.25000    -0.32484
  E(xc)     -27.11289   -27.11993   -27.11790     0.00421    -0.00142    -0.00150
  Local    -196.62817  -198.41918  -188.97768    -1.53596     0.88082     0.79138
  n-local   -15.63249   -15.70172   -15.76524     0.01574     0.00974     0.00064
  augment     0.12506     0.12031     0.11389     0.00034     0.00171     0.00021
  Kinetic   100.37528   100.72413   100.64325    -0.20748     0.07873     0.06583
  Fock        0.00000     0.00000     0.00000     0.00000     0.00000     0.00000
  -------------------------------------------------------------------------------------
  Total      -1.38495    -0.68390    -0.14376    -0.18683    -0.10078     0.02827
  in kB      -2.28276    -1.12725    -0.23696    -0.30795    -0.16611     0.04659
  external pressure =       -1.22 kB  Pullay stress =        0.00 kB

  kinetic pressure (ideal gas correction) =      0.01 kB
  total pressure  =     -1.20 kB
  Total+kin.    -2.269      -1.106      -0.227      -0.319      -0.166       0.044

 VOLUME and BASIS-vectors are now :
 -----------------------------------------------------------------------------
  energy-cutoff  :      400.00
  volume of cell :      972.04
      direct lattice vectors                 reciprocal lattice vectors
     9.830961504  0.000000000  0.000000000     0.101719450 -0.003065792  0.001991379
     0.293472325  9.737072822  0.000000000     0.000000000  0.102700269  0.001589093
    -0.203533371 -0.157122836 10.154570222     0.000000000  0.000000000  0.098477826

  length of vectors
     9.830961504  9.741494400 10.157825053     0.101785123  0.102712563  0.098477826


 FORCES acting on ions
    electron-ion (+dipol)            ewald-force                    non-local-force                 convergence-correction
 -----------------------------------------------------------------------------------------------
   -.166E+02 0.286E+02 0.410E+02   0.183E+02 -.317E+02 -.453E+02   -.173E+01 0.298E+01 0.429E+01   0.823E-04 -.971E-04 -.124E-03
   0.509E+02 -.669E+01 0.370E+01   -.551E+02 0.728E+01 -.401E+01   0.505E+01 -.654E+00 0.370E+00   -.165E-03 0.153E-04 -.115E-04
   -.238E+02 -.462E+02 0.100E+01   0.260E+02 0.504E+02 -.107E+01   -.243E+01 -.469E+01 0.115E+00   0.103E-03 0.140E-03 -.358E-05
   -.111E+02 0.250E+02 -.456E+02   0.123E+02 -.279E+02 0.507E+02   -.117E+01 0.267E+01 -.486E+01   0.669E-04 -.908E-04 0.142E-03
   0.123E+01 -.148E+01 0.187E+00   -.155E+01 0.183E+01 -.341E+00   -.338E+00 0.312E+00 -.249E+00   0.182E-03 -.308E-04 -.824E-05
 -----------------------------------------------------------------------------------------------
   0.611E+00 -.627E+00 0.332E+00   -.178E-14 0.355E-14 0.000E+00   -.611E+00 0.626E+00 -.333E+00   0.269E-03 -.631E-04 -.480E-05
 
 
 POSITION                                       TOTAL-FORCE (eV/Angst)
 -----------------------------------------------------------------------------------
      5.33782      3.88636      3.67380         0.000100     -0.035116      0.020699
      3.88073      4.62851      4.44613         0.815578     -0.059599      0.057846
      5.50306      5.47116      4.50503        -0.261183     -0.406220      0.045356
      5.21914      3.97017      5.45809         0.095881     -0.156558      0.279111
      4.99303      4.48274      4.52741        -0.650891      0.657262     -0.403201
 -----------------------------------------------------------------------------------
    total drift:                               -0.000515     -0.000231     -0.000189


--------------------------------------------------------------------------------------------------------



  FREE ENERGIE OF THE ION-ELECTRON SYSTEM (eV)
  ---------------------------------------------------
  free  energy   TOTEN  =       -24.01216839 eV

  energy  without entropy=      -24.01216839  energy(sigma->0) =      -24.01216839
 
 d Force =-0.3950010E-02[-0.449E-02,-0.341E-02]  d Energy =-0.3952608E-02 0.260E-05
 d Force = 0.2992362E+00[ 0.299E+00, 0.299E+00]  d Ewald  = 0.2992363E+00-0.847E-07


--------------------------------------------------------------------------------------------------------


    POTLOK:  cpu time    0.1280: real time    0.1326


--------------------------------------------------------------------------------------------------------


 stress matrix after NEB project (eV)
     -1.38495     -0.18683      0.02827
     -0.18683     -0.68390     -0.10078
      0.02827     -0.10078     -0.14376
  FORCES: max atom, RMS     1.009070    0.638568
  FORCE total and by dimension    1.427881    0.815578
  Stress total and by dimension    1.580573    1.384954
           RANDOM_SEED =         581342093               30                0
   IONSTEP:  cpu time    0.0002: real time    0.0002

  ENERGY OF THE ELECTRON-ION-THERMOSTAT SYSTEM (eV)
  ---------------------------------------------------
% ion-electron   TOTEN  =       -24.012168  see above
  kinetic energy EKIN   =         0.011696
  kin. lattice  EKIN_LAT=         0.000000  (temperature   22.62 K)
  nose potential ES     =         0.000000
  nose kinetic   EPS    =         0.000000
  ---------------------------------------------------
  total energy   ETOTAL =       -24.000473 eV

  maximum distance moved by ions :      0.39E-03


 mean value of Nose-termostat <S>:     1.000 mean value of <T> :    28.539
 mean temperature <T/S>/<1/S>  :    28.539

    WAVPRE:  cpu time    0.0519: real time    0.0531
    FEWALD:  cpu time    0.0008: real time    0.0008
    ORTHCH:  cpu time    0.0093: real time    0.0095
 Prediction of Wavefunctions ALPHA= 2.084 BETA=-1.110
    POTLOK:  cpu time    0.1289: real time    0.1319
    EDDIAG:  cpu time    0.0380: real time    0.0390
     LOOP+:  cpu time    2.0038: real time    2.0614
    4ORBIT:  cpu time    0.0001: real time    0.0008

 total amount of memory used by VASP MPI-rank0    52337. kBytes
=======================================================================

   base      :      30000. kBytes
   nonl-proj :       2628. kBytes
   fftplans  :       7000. kBytes
   grid      :      10993. kBytes
   one-center:          6. kBytes
   wavefun   :       1710. kBytes
 
  
  
 General timing and accounting informations for this job:
 ========================================================
  
                  Total CPU time used (sec):       29.192
                            User time (sec):       26.495
                          System time (sec):        2.697
                         Elapsed time (sec):       30.348
  
                   Maximum memory used (kb):      167348.
                   Average memory used (kb):           0.
  
                          Minor page faults:       236750
                          Major page faults:          145
                 Voluntary context switches:          608
