<?xml version="1.0" encoding="ISO-8859-1"?>
<modeling>
 <generator>
  <i name="program" type="string">vasp </i>
  <i name="version" type="string">5.4.4.18Apr17-6-g9f103f2a35  </i>
  <i name="subversion" type="string">(build Nov 25 2021 15:25:00) complex            parallel </i>
  <i name="platform" type="string">LinuxIFC </i>
  <i name="date" type="string">2022 02 21 </i>
  <i name="time" type="string">10:17:01 </i>
 </generator>
 <incar>
  <i type="string" name="PREC">a</i>
  <i type="string" name="ALGO">Fast</i>
  <i type="int" name="NELM">   120</i>
  <i type="int" name="NELMIN">     4</i>
  <i type="int" name="IBRION">     0</i>
  <i name="EDIFF">      0.00000100</i>
  <i type="int" name="NSW">    10</i>
  <i type="int" name="ISIF">     2</i>
  <i type="int" name="ISYM">     0</i>
  <i name="ENCUT">    400.00000000</i>
  <i name="POTIM">      0.50000000</i>
  <i type="logical" name="LREAL"> F  </i>
  <i type="int" name="ISMEAR">     0</i>
  <i name="SIGMA">      0.20000000</i>
  <i name="KSPACING">      0.50000000</i>
  <i type="logical" name="KGAMMA"> F  </i>
  <i name="PSTRESS">      0.00000000</i>
  <i type="logical" name="LWAVE"> F  </i>
  <i type="logical" name="LCHARG"> F  </i>
  <v type="int" name="KPOINT_BSE">    -1     0     0     0</v>
  <i type="int" name="NELM">   120</i>
 </incar>
 <structure name="primitive_cell" >
  <crystal>
   <varray name="basis" >
    <v>       9.83096150       0.00000000       0.00000000 </v>
    <v>       0.29347233       9.73707282       0.00000000 </v>
    <v>      -0.20353337      -0.15712284      10.15457022 </v>
   </varray>
   <i name="volume">    972.04408248 </i>
   <varray name="rec_basis" >
    <v>       0.10171945      -0.00306579       0.00199138 </v>
    <v>       0.00000000       0.10270027       0.00158909 </v>
    <v>       0.00000000       0.00000000       0.09847783 </v>
   </varray>
  </crystal>
  <varray name="positions" >
   <v>      -0.46196895       0.40685964       0.36064840 </v>
   <v>      -0.49712570       0.46790444       0.44581279 </v>
   <v>      -0.44825532      -0.43435863       0.44234224 </v>
   <v>       0.39455662       0.48029430       0.43849976 </v>
   <v>      -0.47157181       0.41606348      -0.46027052 </v>
  </varray>
 </structure>
 <varray name="primitive_index" >
  <v type="int" >        1 </v>
  <v type="int" >        5 </v>
  <v type="int" >        3 </v>
  <v type="int" >        2 </v>
  <v type="int" >        4 </v>
 </varray>
 <kpoints>
  <generation param="Monkhorst-Pack">
   <v type="int" name="divisions">       2        2        2 </v>
   <v name="usershift">      0.00000000       0.00000000       0.00000000 </v>
   <v name="genvec1">      0.50000000       0.00000000       0.00000000 </v>
   <v name="genvec2">      0.00000000       0.50000000       0.00000000 </v>
   <v name="genvec3">      0.00000000       0.00000000       0.50000000 </v>
   <v name="shift">      0.50000000       0.50000000       0.50000000 </v>
  </generation>
  <varray name="kpointlist" >
   <v>       0.25000000       0.25000000       0.25000000 </v>
   <v>      -0.25000000       0.25000000       0.25000000 </v>
   <v>       0.25000000      -0.25000000       0.25000000 </v>
   <v>      -0.25000000      -0.25000000       0.25000000 </v>
  </varray>
  <varray name="weights" >
   <v>       0.25000000 </v>
   <v>       0.25000000 </v>
   <v>       0.25000000 </v>
   <v>       0.25000000 </v>
  </varray>
 </kpoints>
 <parameters>
  <separator name="general" >
   <i type="string" name="SYSTEM">unknown system</i>
   <i type="logical" name="LCOMPAT"> F  </i>
  </separator>
  <separator name="electronic" >
   <i type="string" name="PREC">a</i>
   <i name="ENMAX">    400.00000000</i>
   <i name="ENAUG">    644.87300000</i>
   <i name="EDIFF">      0.00000100</i>
   <i type="int" name="IALGO">    68</i>
   <i type="int" name="IWAVPR">    12</i>
   <i type="int" name="NBANDS">     8</i>
   <i name="NELECT">      8.00000000</i>
   <i type="int" name="TURBO">     0</i>
   <i type="int" name="IRESTART">     0</i>
   <i type="int" name="NREBOOT">     0</i>
   <i type="int" name="NMIN">     0</i>
   <i name="EREF">      0.00000000</i>
   <separator name="electronic smearing" >
    <i type="int" name="ISMEAR">     0</i>
    <i name="SIGMA">      0.20000000</i>
    <i name="KSPACING">      0.50000000</i>
    <i type="logical" name="KGAMMA"> F  </i>
   </separator>
   <separator name="electronic projectors" >
    <i type="logical" name="LREAL"> F  </i>
    <v name="ROPT">      0.00000000      0.00000000</v>
    <i type="int" name="LMAXPAW">  -100</i>
    <i type="int" name="LMAXMIX">     2</i>
    <i type="logical" name="NLSPLINE"> F  </i>
   </separator>
   <separator name="electronic startup" >
    <i type="int" name="ISTART">     0</i>
    <i type="int" name="ICHARG">     2</i>
    <i type="int" name="INIWAV">     1</i>
   </separator>
   <separator name="electronic spin" >
    <i type="int" name="ISPIN">     1</i>
    <i type="logical" name="LNONCOLLINEAR"> F  </i>
    <v name="MAGMOM">      1.00000000      1.00000000      1.00000000      1.00000000      1.00000000</v>
    <i name="NUPDOWN">     -1.00000000</i>
    <i type="logical" name="LSORBIT"> F  </i>
    <v name="SAXIS">      0.00000000      0.00000000      1.00000000</v>
    <i type="logical" name="LSPIRAL"> F  </i>
    <v name="QSPIRAL">      0.00000000      0.00000000      0.00000000</v>
    <i type="logical" name="LZEROZ"> F  </i>
   </separator>
   <separator name="electronic exchange-correlation" >
    <i type="logical" name="LASPH"> F  </i>
    <i type="logical" name="LMETAGGA"> F  </i>
   </separator>
   <separator name="electronic convergence" >
    <i type="int" name="NELM">   120</i>
    <i type="int" name="NELMDL">    -5</i>
    <i type="int" name="NELMIN">     4</i>
    <i name="ENINI">    400.00000000</i>
    <separator name="electronic convergence detail" >
     <i type="logical" name="LDIAG"> T  </i>
     <i type="logical" name="LSUBROT"> F  </i>
     <i name="WEIMIN">      0.00100000</i>
     <i name="EBREAK">      0.00000003</i>
     <i name="DEPER">      0.30000000</i>
     <i type="int" name="NRMM">     4</i>
     <i name="TIME">      0.40000000</i>
    </separator>
   </separator>
   <separator name="electronic mixer" >
    <i name="AMIX">      0.40000000</i>
    <i name="BMIX">      1.00000000</i>
    <i name="AMIN">      0.10000000</i>
    <i name="AMIX_MAG">      1.60000000</i>
    <i name="BMIX_MAG">      1.00000000</i>
    <separator name="electronic mixer details" >
     <i type="int" name="IMIX">     4</i>
     <i type="logical" name="MIXFIRST"> F  </i>
     <i type="int" name="MAXMIX">   -45</i>
     <i name="WC">    100.00000000</i>
     <i type="int" name="INIMIX">     1</i>
     <i type="int" name="MIXPRE">     1</i>
     <i type="int" name="MREMOVE">     5</i>
    </separator>
   </separator>
   <separator name="electronic dipolcorrection" >
    <i type="logical" name="LDIPOL"> F  </i>
    <i type="logical" name="LMONO"> F  </i>
    <i type="int" name="IDIPOL">     0</i>
    <i name="EPSILON">      1.00000000</i>
    <v name="DIPOL">   -100.00000000   -100.00000000   -100.00000000</v>
    <i name="EFIELD">      0.00000000</i>
   </separator>
  </separator>
  <separator name="grids" >
   <i type="int" name="NGX">    64</i>
   <i type="int" name="NGY">    64</i>
   <i type="int" name="NGZ">    70</i>
   <i type="int" name="NGXF">   128</i>
   <i type="int" name="NGYF">   128</i>
   <i type="int" name="NGZF">   140</i>
   <i type="logical" name="ADDGRID"> F  </i>
  </separator>
  <separator name="ionic" >
   <i type="int" name="NSW">    10</i>
   <i type="int" name="IBRION">     0</i>
   <i type="int" name="MDALGO">     0</i>
   <i type="int" name="ISIF">     2</i>
   <i name="PSTRESS">      0.00000000</i>
   <i name="EDIFFG">      0.00001000</i>
   <i type="int" name="NFREE">     0</i>
   <i name="POTIM">      0.50000000</i>
   <i name="SMASS">     -3.00000000</i>
   <i name="SCALEE">      1.00000000</i>
  </separator>
  <separator name="ionic md" >
   <i name="TEBEG">      0.00010000</i>
   <i name="TEEND">      0.00010000</i>
   <i type="int" name="NBLOCK">     1</i>
   <i type="int" name="KBLOCK">    10</i>
   <i type="int" name="NPACO">   256</i>
   <i name="APACO">     16.00000000</i>
  </separator>
  <separator name="symmetry" >
   <i type="int" name="ISYM">     0</i>
   <i name="SYMPREC">      0.00001000</i>
  </separator>
  <separator name="dos" >
   <i type="int" name="LORBIT">     0</i>
   <v name="RWIGS">     -1.00000000     -1.00000000</v>
   <i type="int" name="NEDOS">   301</i>
   <i name="EMIN">     10.00000000</i>
   <i name="EMAX">    -10.00000000</i>
   <i name="EFERMI">      0.00000000</i>
  </separator>
  <separator name="writing" >
   <i type="int" name="NWRITE">     2</i>
   <i type="logical" name="LWAVE"> F  </i>
   <i type="logical" name="LDOWNSAMPLE"> F  </i>
   <i type="logical" name="LCHARG"> F  </i>
   <i type="logical" name="LPARD"> F  </i>
   <i type="logical" name="LVTOT"> F  </i>
   <i type="logical" name="LVHAR"> F  </i>
   <i type="logical" name="LELF"> F  </i>
   <i type="logical" name="LOPTICS"> F  </i>
   <v name="STM">      0.00000000      0.00000000      0.00000000      0.00000000      0.00000000      0.00000000      0.00000000</v>
  </separator>
  <separator name="performance" >
   <i type="int" name="NPAR">     4</i>
   <i type="int" name="NSIM">     4</i>
   <i type="int" name="NBLK">    -1</i>
   <i type="logical" name="LPLANE"> T  </i>
   <i type="logical" name="LSCALAPACK"> T  </i>
   <i type="logical" name="LSCAAWARE"> F  </i>
   <i type="logical" name="LSCALU"> F  </i>
   <i type="logical" name="LASYNC"> F  </i>
   <i type="logical" name="LORBITALREAL"> F  </i>
  </separator>
  <separator name="miscellaneous" >
   <i type="int" name="IDIOT">     3</i>
   <i type="int" name="ISPECIAL">     0</i>
   <i type="logical" name="LMUSIC"> F  </i>
   <v name="POMASS">      1.00000000     12.01100000</v>
   <v name="DARWINR">      0.00000000      0.00000000</v>
   <v name="DARWINV">      1.00000000      1.00000000</v>
   <i type="logical" name="LCORR"> T  </i>
  </separator>
  <i type="logical" name="GGA_COMPAT"> T  </i>
  <i type="logical" name="LBERRY"> F  </i>
  <i type="int" name="ICORELEVEL">     0</i>
  <i type="logical" name="LDAU"> F  </i>
  <i type="int" name="I_CONSTRAINED_M">     0</i>
  <separator name="electronic exchange-correlation" >
   <i type="string" name="GGA">--</i>
   <i type="int" name="VOSKOWN">     0</i>
   <i type="logical" name="LHFCALC"> F  </i>
   <i type="string" name="PRECFOCK"></i>
   <i type="logical" name="LSYMGRAD"> F  </i>
   <i type="logical" name="LHFONE"> F  </i>
   <i type="logical" name="LRHFCALC"> F  </i>
   <i type="logical" name="LTHOMAS"> F  </i>
   <i type="logical" name="LMODELHF"> F  </i>
   <i name="ENCUT4O">     -1.00000000</i>
   <i type="int" name="EXXOEP">     0</i>
   <i type="int" name="FOURORBIT">     0</i>
   <i name="AEXX">      0.00000000</i>
   <i name="HFALPHA">      0.00000000</i>
   <i name="MCALPHA">      0.00000000</i>
   <i name="ALDAX">      1.00000000</i>
   <i name="AGGAX">      1.00000000</i>
   <i name="ALDAC">      1.00000000</i>
   <i name="AGGAC">      1.00000000</i>
   <i type="int" name="NKREDX">     1</i>
   <i type="int" name="NKREDY">     1</i>
   <i type="int" name="NKREDZ">     1</i>
   <i type="logical" name="SHIFTRED"> F  </i>
   <i type="logical" name="ODDONLY"> F  </i>
   <i type="logical" name="EVENONLY"> F  </i>
   <i type="int" name="LMAXFOCK">     0</i>
   <i type="int" name="NMAXFOCKAE">     0</i>
   <i type="logical" name="LFOCKAEDFT"> F  </i>
   <i name="HFSCREEN">      0.00000000</i>
   <i name="HFSCREENC">      0.00000000</i>
   <i type="int" name="NBANDSGWLOW">     0</i>
  </separator>
  <separator name="vdW DFT" >
   <i type="logical" name="LUSE_VDW"> F  </i>
   <i name="Zab_VDW">     -0.84910000</i>
   <i name="PARAM1">      0.12340000</i>
   <i name="PARAM2">      1.00000000</i>
   <i name="PARAM3">      0.00000000</i>
  </separator>
  <separator name="model GW" >
   <i type="int" name="MODEL_GW">     0</i>
   <i name="MODEL_EPS0">    116.64528990</i>
   <i name="MODEL_ALPHA">      1.00000000</i>
  </separator>
  <separator name="linear response parameters" >
   <i type="logical" name="LEPSILON"> F  </i>
   <i type="logical" name="LRPA"> F  </i>
   <i type="logical" name="LNABLA"> F  </i>
   <i type="logical" name="LVEL"> F  </i>
   <i type="int" name="KINTER">     0</i>
   <i name="CSHIFT">      0.10000000</i>
   <i name="OMEGAMAX">     -1.00000000</i>
   <i name="DEG_THRESHOLD">      0.00200000</i>
   <i name="RTIME">     -0.10000000</i>
   <i name="WPLASMAI">      0.00000000</i>
   <v name="DFIELD">      0.00000000      0.00000000      0.00000000</v>
   <v name="WPLASMA">      0.00000000      0.00000000      0.00000000      0.00000000      0.00000000      0.00000000      0.00000000      0.00000000      0.00000000</v>
  </separator>
  <separator name="orbital magnetization" >
   <i type="logical" name="NUCIND"> F  </i>
   <v name="MAGPOS">      0.00000000      0.00000000      0.00000000</v>
   <i type="logical" name="LNICSALL"> T  </i>
   <i type="logical" name="ORBITALMAG"> F  </i>
   <i type="logical" name="LMAGBLOCH"> F  </i>
   <i type="logical" name="LCHIMAG"> F  </i>
   <i type="logical" name="LGAUGE"> T  </i>
   <i type="int" name="MAGATOM">     0</i>
   <v name="MAGDIPOL">      0.00000000      0.00000000      0.00000000</v>
   <v name="AVECCONST">      0.00000000      0.00000000      0.00000000</v>
  </separator>
  <separator name="response functions" >
   <i type="logical" name="LADDER"> F  </i>
   <i type="logical" name="LRPAFORCE"> F  </i>
   <i type="logical" name="LFXC"> F  </i>
   <i type="logical" name="LHARTREE"> T  </i>
   <i type="int" name="IBSE">     0</i>
   <v type="int" name="KPOINT">    -1     0     0     0</v>
   <i type="logical" name="LTCTE"> F  </i>
   <i type="logical" name="LTETE"> F  </i>
   <i type="logical" name="LTRIPLET"> F  </i>
   <i type="logical" name="LFXCEPS"> F  </i>
   <i type="logical" name="LFXHEG"> F  </i>
   <i type="int" name="NATURALO">     2</i>
   <i type="logical" name="L2ORDER"> F  </i>
   <i type="logical" name="LMP2LT"> F  </i>
   <i type="logical" name="LUSEW"> F  </i>
   <i name="ENCUTGW">     -2.00000000</i>
   <i name="ENCUTGWSOFT">     -2.00000000</i>
   <i name="ENCUTLF">     -1.00000000</i>
   <i type="int" name="LMAXMP2">    -1</i>
   <i name="SCISSOR">      0.00000000</i>
   <i type="int" name="NOMEGA">     0</i>
   <i type="int" name="NOMEGAR">     0</i>
   <i type="int" name="NBANDSGW">    -1</i>
   <i type="int" name="NBANDSO">    -1</i>
   <i type="int" name="NBANDSV">    -1</i>
   <i type="int" name="NELM">   120</i>
   <i type="int" name="NELMHF">     1</i>
   <i type="int" name="DIM">     3</i>
   <i type="int" name="ANTIRES">     0</i>
   <i name="OMEGAMAX">    -30.00000000</i>
   <i name="OMEGAMIN">    -30.00000000</i>
   <i name="OMEGATL">   -200.00000000</i>
   <i type="int" name="OMEGAGRID">   140</i>
   <i name="CSHIFT">     -0.10000000</i>
   <i type="logical" name="SELFENERGY"> F  </i>
   <i type="logical" name="LSPECTRAL"> F  </i>
   <i type="logical" name="LSPECTRALGW"> F  </i>
   <i type="logical" name="LSINGLES"> F  </i>
   <i type="logical" name="LFERMIGW"> F  </i>
   <i type="logical" name="ODDONLYGW"> F  </i>
   <i type="logical" name="EVENONLYGW"> F  </i>
   <i type="int" name="NKREDLFX">     1</i>
   <i type="int" name="NKREDLFY">     1</i>
   <i type="int" name="NKREDLFZ">     1</i>
   <i type="int" name="MAXMEM">  2800</i>
   <i type="int" name="TELESCOPE">     0</i>
   <i type="int" name="TAUPAR">     1</i>
   <i type="int" name="OMEGAPAR">    -1</i>
   <i name="LAMBDA">      1.00000000</i>
  </separator>
  <separator name="External order field" >
   <i name="OFIELD_KAPPA">      0.00000000</i>
   <v name="OFIELD_K">      0.00000000      0.00000000      0.00000000</v>
   <i name="OFIELD_Q6_NEAR">      0.00000000</i>
   <i name="OFIELD_Q6_FAR">      0.00000000</i>
   <i name="OFIELD_A">      0.00000000</i>
  </separator>
 </parameters>
 <atominfo>
  <atoms>       5 </atoms>
  <types>       2 </types>
  <array name="atoms" >
   <dimension dim="1">ion</dimension>
   <field type="string">element</field>
   <field type="int">atomtype</field>
   <set>
    <rc><c>H </c><c>   1</c></rc>
    <rc><c>H </c><c>   1</c></rc>
    <rc><c>H </c><c>   1</c></rc>
    <rc><c>H </c><c>   1</c></rc>
    <rc><c>C </c><c>   2</c></rc>
   </set>
  </array>
  <array name="atomtypes" >
   <dimension dim="1">type</dimension>
   <field type="int">atomspertype</field>
   <field type="string">element</field>
   <field>mass</field>
   <field>valence</field>
   <field type="string">pseudopotential</field>
   <set>
    <rc><c>   4</c><c>H </c><c>      1.00000000</c><c>      1.00000000</c><c>  PAW_PBE H 15Jun2001                   </c></rc>
    <rc><c>   1</c><c>C </c><c>     12.01100000</c><c>      4.00000000</c><c>  PAW_PBE C 08Apr2002                   </c></rc>
   </set>
  </array>
 </atominfo>
 <structure name="initialpos" >
  <crystal>
   <varray name="basis" >
    <v>       9.83096150       0.00000000       0.00000000 </v>
    <v>       0.29347233       9.73707282       0.00000000 </v>
    <v>      -0.20353337      -0.15712284      10.15457022 </v>
   </varray>
   <i name="volume">    972.04408248 </i>
   <varray name="rec_basis" >
    <v>       0.10171945      -0.00306579       0.00199138 </v>
    <v>       0.00000000       0.10270027       0.00158909 </v>
    <v>       0.00000000       0.00000000       0.09847783 </v>
   </varray>
  </crystal>
  <varray name="positions" >
   <v>       0.53803105       0.40685964       0.36064840 </v>
   <v>       0.39455662       0.48029430       0.43849976 </v>
   <v>       0.55174468       0.56564137       0.44234224 </v>
   <v>       0.52842819       0.41606348       0.53972948 </v>
   <v>       0.50287430       0.46790444       0.44581279 </v>
  </varray>
  <varray name="velocities" >
   <v>       0.00000059       0.00000011       0.00000095 </v>
   <v>      -0.00000018      -0.00000017      -0.00000035 </v>
   <v>       0.00000018      -0.00000037       0.00000017 </v>
   <v>       0.00000002      -0.00000028       0.00000072 </v>
   <v>      -0.00000005       0.00000006      -0.00000012 </v>
  </varray>
 </structure>
 <calculation>
  <scstep>
   <time name="dav">    0.20    0.23</time>
   <time name="total">    0.36    0.40</time>
   <energy>
    <i name="alphaZ">      0.24921791 </i>
    <i name="ewald">    129.51377229 </i>
    <i name="hartreedc">   -243.86077361 </i>
    <i name="XCdc">     22.05608149 </i>
    <i name="pawpsdc">    117.05815612 </i>
    <i name="pawaedc">   -117.66307307 </i>
    <i name="eentropy">     -0.00000000 </i>
    <i name="bandstr">    -91.68413940 </i>
    <i name="atom">    197.04175453 </i>
    <i name="e_fr_energy">     12.71099627 </i>
    <i name="e_wo_entrp">     12.71099627 </i>
    <i name="e_0_energy">     12.71099627 </i>
   </energy>
  </scstep>
  <scstep>
   <time name="dav">    0.16    0.16</time>
   <time name="total">    0.16    0.16</time>
   <energy>
    <i name="e_fr_energy">    -23.76694851 </i>
    <i name="e_wo_entrp">    -23.76694851 </i>
    <i name="e_0_energy">    -23.76694851 </i>
   </energy>
  </scstep>
  <scstep>
   <time name="dav">    0.14    0.14</time>
   <time name="total">    0.14    0.14</time>
   <energy>
    <i name="e_fr_energy">    -27.51633247 </i>
    <i name="e_wo_entrp">    -27.51633247 </i>
    <i name="e_0_energy">    -27.51633247 </i>
   </energy>
  </scstep>
  <scstep>
   <time name="dav">    0.24    0.24</time>
   <time name="total">    0.24    0.24</time>
   <energy>
    <i name="e_fr_energy">    -27.65163484 </i>
    <i name="e_wo_entrp">    -27.65163484 </i>
    <i name="e_0_energy">    -27.65163484 </i>
   </energy>
  </scstep>
  <scstep>
   <time name="dav">    0.19    0.19</time>
   <time name="total">    0.22    0.22</time>
   <energy>
    <i name="e_fr_energy">    -27.65167382 </i>
    <i name="e_wo_entrp">    -27.65167382 </i>
    <i name="e_0_energy">    -27.65167382 </i>
   </energy>
  </scstep>
  <scstep>
   <time name="diag">    0.04    0.06</time>
   <time name="diis">    0.15    0.16</time>
   <time name="orth">    0.00    0.00</time>
   <time name="total">    0.38    0.40</time>
   <energy>
    <i name="e_fr_energy">    -24.65655624 </i>
    <i name="e_wo_entrp">    -24.65655624 </i>
    <i name="e_0_energy">    -24.65655624 </i>
   </energy>
  </scstep>
  <scstep>
   <time name="diag">    0.04    0.04</time>
   <time name="diis">    0.15    0.16</time>
   <time name="orth">    0.00    0.00</time>
   <time name="total">    0.35    0.36</time>
   <energy>
    <i name="e_fr_energy">    -24.14609244 </i>
    <i name="e_wo_entrp">    -24.14609244 </i>
    <i name="e_0_energy">    -24.14609244 </i>
   </energy>
  </scstep>
  <scstep>
   <time name="diag">    0.04    0.04</time>
   <time name="diis">    0.15    0.15</time>
   <time name="orth">    0.00    0.00</time>
   <time name="total">    0.34    0.35</time>
   <energy>
    <i name="e_fr_energy">    -23.99838228 </i>
    <i name="e_wo_entrp">    -23.99838228 </i>
    <i name="e_0_energy">    -23.99838228 </i>
   </energy>
  </scstep>
  <scstep>
   <time name="diag">    0.04    0.04</time>
   <time name="diis">    0.15    0.15</time>
   <time name="orth">    0.00    0.00</time>
   <time name="total">    0.34    0.35</time>
   <energy>
    <i name="e_fr_energy">    -23.99268760 </i>
    <i name="e_wo_entrp">    -23.99268760 </i>
    <i name="e_0_energy">    -23.99268760 </i>
   </energy>
  </scstep>
  <scstep>
   <time name="diag">    0.04    0.04</time>
   <time name="diis">    0.15    0.15</time>
   <time name="orth">    0.00    0.00</time>
   <time name="total">    0.34    0.35</time>
   <energy>
    <i name="e_fr_energy">    -23.98674979 </i>
    <i name="e_wo_entrp">    -23.98674979 </i>
    <i name="e_0_energy">    -23.98674979 </i>
   </energy>
  </scstep>
  <scstep>
   <time name="diag">    0.04    0.04</time>
   <time name="diis">    0.15    0.15</time>
   <time name="orth">    0.00    0.00</time>
   <time name="total">    0.34    0.35</time>
   <energy>
    <i name="e_fr_energy">    -23.98738276 </i>
    <i name="e_wo_entrp">    -23.98738276 </i>
    <i name="e_0_energy">    -23.98738276 </i>
   </energy>
  </scstep>
  <scstep>
   <time name="diag">    0.04    0.04</time>
   <time name="diis">    0.15    0.15</time>
   <time name="orth">    0.00    0.00</time>
   <time name="total">    0.33    0.34</time>
   <energy>
    <i name="e_fr_energy">    -23.99711369 </i>
    <i name="e_wo_entrp">    -23.99711369 </i>
    <i name="e_0_energy">    -23.99711369 </i>
   </energy>
  </scstep>
  <scstep>
   <time name="diag">    0.04    0.04</time>
   <time name="diis">    0.15    0.15</time>
   <time name="orth">    0.00    0.00</time>
   <time name="total">    0.32    0.33</time>
   <energy>
    <i name="e_fr_energy">    -23.99753875 </i>
    <i name="e_wo_entrp">    -23.99753875 </i>
    <i name="e_0_energy">    -23.99753875 </i>
   </energy>
  </scstep>
  <scstep>
   <time name="diag">    0.04    0.04</time>
   <time name="diis">    0.15    0.15</time>
   <time name="orth">    0.00    0.00</time>
   <time name="total">    0.33    0.34</time>
   <energy>
    <i name="e_fr_energy">    -24.00037183 </i>
    <i name="e_wo_entrp">    -24.00037183 </i>
    <i name="e_0_energy">    -24.00037183 </i>
   </energy>
  </scstep>
  <scstep>
   <time name="diag">    0.04    0.04</time>
   <time name="diis">    0.15    0.15</time>
   <time name="orth">    0.00    0.00</time>
   <time name="total">    0.33    0.34</time>
   <energy>
    <i name="e_fr_energy">    -24.00060518 </i>
    <i name="e_wo_entrp">    -24.00060518 </i>
    <i name="e_0_energy">    -24.00060518 </i>
   </energy>
  </scstep>
  <scstep>
   <time name="diag">    0.04    0.04</time>
   <time name="diis">    0.15    0.16</time>
   <time name="orth">    0.00    0.00</time>
   <time name="total">    0.33    0.35</time>
   <energy>
    <i name="e_fr_energy">    -24.00081108 </i>
    <i name="e_wo_entrp">    -24.00081108 </i>
    <i name="e_0_energy">    -24.00081108 </i>
   </energy>
  </scstep>
  <scstep>
   <time name="diag">    0.04    0.04</time>
   <time name="diis">    0.15    0.16</time>
   <time name="orth">    0.00    0.00</time>
   <time name="total">    0.34    0.36</time>
   <energy>
    <i name="e_fr_energy">    -24.00084022 </i>
    <i name="e_wo_entrp">    -24.00084022 </i>
    <i name="e_0_energy">    -24.00084022 </i>
   </energy>
  </scstep>
  <scstep>
   <time name="diag">    0.04    0.04</time>
   <time name="diis">    0.13    0.14</time>
   <time name="orth">    0.00    0.00</time>
   <time name="total">    0.32    0.33</time>
   <energy>
    <i name="e_fr_energy">    -24.00085272 </i>
    <i name="e_wo_entrp">    -24.00085272 </i>
    <i name="e_0_energy">    -24.00085272 </i>
   </energy>
  </scstep>
  <scstep>
   <time name="diag">    0.04    0.04</time>
   <time name="diis">    0.12    0.12</time>
   <time name="orth">    0.00    0.00</time>
   <time name="total">    0.31    0.32</time>
   <energy>
    <i name="e_fr_energy">    -24.00085600 </i>
    <i name="e_wo_entrp">    -24.00085600 </i>
    <i name="e_0_energy">    -24.00085600 </i>
   </energy>
  </scstep>
  <scstep>
   <time name="diag">    0.04    0.04</time>
   <time name="diis">    0.11    0.11</time>
   <time name="orth">    0.00    0.00</time>
   <time name="total">    0.30    0.31</time>
   <energy>
    <i name="e_fr_energy">    -24.00085712 </i>
    <i name="e_wo_entrp">    -24.00085712 </i>
    <i name="e_0_energy">    -24.00085712 </i>
   </energy>
  </scstep>
  <scstep>
   <time name="diag">    0.04    0.04</time>
   <time name="diis">    0.12    0.12</time>
   <time name="orth">    0.00    0.00</time>
   <time name="total">    0.29    0.30</time>
   <energy>
    <i name="alphaZ">      0.24921791 </i>
    <i name="ewald">    129.51377229 </i>
    <i name="hartreedc">   -285.07380889 </i>
    <i name="XCdc">     24.83180263 </i>
    <i name="pawpsdc">    479.04529174 </i>
    <i name="pawaedc">   -479.83985731 </i>
    <i name="eentropy">     -0.00000000 </i>
    <i name="bandstr">    -89.76903073 </i>
    <i name="atom">    197.04175453 </i>
    <i name="e_fr_energy">    -24.00085783 </i>
    <i name="e_wo_entrp">    -24.00085783 </i>
    <i name="e_0_energy">    -24.00085783 </i>
   </energy>
  </scstep>
  <structure>
   <crystal>
    <varray name="basis" >
     <v>       9.83096150       0.00000000       0.00000000 </v>
     <v>       0.29347233       9.73707282       0.00000000 </v>
     <v>      -0.20353337      -0.15712284      10.15457022 </v>
    </varray>
    <i name="volume">    972.04408248 </i>
    <varray name="rec_basis" >
     <v>       0.10171945      -0.00306579       0.00199138 </v>
     <v>       0.00000000       0.10270027       0.00158909 </v>
     <v>       0.00000000       0.00000000       0.09847783 </v>
    </varray>
   </crystal>
   <varray name="positions" >
    <v>       0.53803105       0.40685964       0.36064840 </v>
    <v>       0.39455662       0.48029430       0.43849976 </v>
    <v>       0.55174468       0.56564137       0.44234224 </v>
    <v>       0.52842819       0.41606348       0.53972948 </v>
    <v>       0.50287430       0.46790444       0.44581279 </v>
   </varray>
  </structure>
  <varray name="forces" >
   <v>       0.02741025      -0.20073833       0.12958605 </v>
   <v>      -0.94264401       0.26686587      -0.10007923 </v>
   <v>       0.14057388       0.54719759       0.13612419 </v>
   <v>       0.10412830       0.10234436      -0.36575890 </v>
   <v>       0.67004557      -0.71498705       0.20024336 </v>
  </varray>
  <varray name="stress" >
   <v>       1.16465893      -0.08426780       0.22892327 </v>
   <v>      -0.08426780       0.37209679       0.37841112 </v>
   <v>       0.22892327       0.37841112      -1.37910981 </v>
  </varray>
  <energy>
   <i name="e_fr_energy">    -24.00085783 </i>
   <i name="e_wo_entrp">    -24.00085783 </i>
   <i name="e_0_energy">     -0.00000000 </i>
   <i name="kinetic">      0.00048226 </i>
   <i name="lattice kinetic">      0.00000000 </i>
   <i name="nosepot">      0.00000000 </i>
   <i name="nosekinetic">      0.00000000 </i>
   <i name="total">    -24.00037557 </i>
  </energy>
  <time name="totalsc">    7.00    7.24</time>
 </calculation>
 <calculation>
  <scstep>
   <time name="dav">    0.14    0.14</time>
   <time name="total">    0.30    0.30</time>
   <energy>
    <i name="alphaZ">      0.24921791 </i>
    <i name="ewald">    129.33714460 </i>
    <i name="hartreedc">   -284.97761006 </i>
    <i name="XCdc">     24.82687745 </i>
    <i name="pawpsdc">    479.04287445 </i>
    <i name="pawaedc">   -479.83746234 </i>
    <i name="eentropy">     -0.00000000 </i>
    <i name="bandstr">    -89.68736799 </i>
    <i name="atom">    197.04175453 </i>
    <i name="e_fr_energy">    -24.00457146 </i>
    <i name="e_wo_entrp">    -24.00457146 </i>
    <i name="e_0_energy">    -24.00457146 </i>
   </energy>
  </scstep>
  <scstep>
   <time name="diag">    0.04    0.04</time>
   <time name="diis">    0.16    0.16</time>
   <time name="orth">    0.00    0.00</time>
   <time name="total">    0.36    0.36</time>
   <energy>
    <i name="e_fr_energy">    -24.00455957 </i>
    <i name="e_wo_entrp">    -24.00455957 </i>
    <i name="e_0_energy">    -24.00455957 </i>
   </energy>
  </scstep>
  <scstep>
   <time name="diag">    0.04    0.04</time>
   <time name="diis">    0.15    0.16</time>
   <time name="orth">    0.00    0.00</time>
   <time name="total">    0.35    0.35</time>
   <energy>
    <i name="e_fr_energy">    -24.00455738 </i>
    <i name="e_wo_entrp">    -24.00455738 </i>
    <i name="e_0_energy">    -24.00455738 </i>
   </energy>
  </scstep>
  <scstep>
   <time name="diag">    0.04    0.04</time>
   <time name="diis">    0.13    0.13</time>
   <time name="orth">    0.00    0.00</time>
   <time name="total">    0.30    0.30</time>
   <energy>
    <i name="alphaZ">      0.24921791 </i>
    <i name="ewald">    129.33714460 </i>
    <i name="hartreedc">   -284.92299300 </i>
    <i name="XCdc">     24.82376430 </i>
    <i name="pawpsdc">    477.96916552 </i>
    <i name="pawaedc">   -478.76306830 </i>
    <i name="eentropy">     -0.00000000 </i>
    <i name="bandstr">    -89.73954248 </i>
    <i name="atom">    197.04175453 </i>
    <i name="e_fr_energy">    -24.00455693 </i>
    <i name="e_wo_entrp">    -24.00455693 </i>
    <i name="e_0_energy">    -24.00455693 </i>
   </energy>
  </scstep>
  <structure>
   <crystal>
    <varray name="basis" >
     <v>       9.83096150       0.00000000       0.00000000 </v>
     <v>       0.29347233       9.73707282       0.00000000 </v>
     <v>      -0.20353337      -0.15712284      10.15457022 </v>
    </varray>
    <i name="volume">    972.04408248 </i>
    <varray name="rec_basis" >
     <v>       0.10171945      -0.00306579       0.00199138 </v>
     <v>       0.00000000       0.10270027       0.00158909 </v>
     <v>       0.00000000       0.00000000       0.09847783 </v>
    </varray>
   </crystal>
   <varray name="positions" >
    <v>       0.53804047       0.40681051       0.36068013 </v>
    <v>       0.39432271       0.48035984       0.43847563 </v>
    <v>       0.55177597       0.56577707       0.44237474 </v>
    <v>       0.52845125       0.41608714       0.53964331 </v>
    <v>       0.50288847       0.46788981       0.44581663 </v>
   </varray>
  </structure>
  <varray name="forces" >
   <v>       0.02626589      -0.19596874       0.12620250 </v>
   <v>      -0.85029803       0.25388233      -0.09305201 </v>
   <v>       0.11877027       0.50323093       0.13426212 </v>
   <v>       0.10516648       0.09141157      -0.34063517 </v>
   <v>       0.59901030      -0.65128105       0.17310413 </v>
  </varray>
  <varray name="stress" >
   <v>       0.99622887      -0.09990250       0.22253349 </v>
   <v>      -0.09990250       0.31295197       0.35872666 </v>
   <v>       0.22253349       0.35872665      -1.33007649 </v>
  </varray>
  <energy>
   <i name="e_fr_energy">    -24.00455693 </i>
   <i name="e_wo_entrp">    -24.00455693 </i>
   <i name="e_0_energy">     -0.00000000 </i>
   <i name="kinetic">      0.00410154 </i>
   <i name="lattice kinetic">      0.00000000 </i>
   <i name="nosepot">      0.00000000 </i>
   <i name="nosekinetic">      0.00000000 </i>
   <i name="total">    -24.00045539 </i>
  </energy>
  <time name="totalsc">    1.91    1.93</time>
 </calculation>
 <calculation>
  <scstep>
   <time name="dav">    0.16    0.16</time>
   <time name="total">    0.31    0.31</time>
   <energy>
    <i name="alphaZ">      0.24921791 </i>
    <i name="ewald">    129.00344140 </i>
    <i name="hartreedc">   -284.65083728 </i>
    <i name="XCdc">     24.80904373 </i>
    <i name="pawpsdc">    475.70471991 </i>
    <i name="pawaedc">   -476.49752202 </i>
    <i name="eentropy">     -0.00000000 </i>
    <i name="bandstr">    -89.67052729 </i>
    <i name="atom">    197.04175453 </i>
    <i name="e_fr_energy">    -24.01070911 </i>
    <i name="e_wo_entrp">    -24.01070911 </i>
    <i name="e_0_energy">    -24.01070911 </i>
   </energy>
  </scstep>
  <scstep>
   <time name="diag">    0.04    0.04</time>
   <time name="diis">    0.15    0.15</time>
   <time name="orth">    0.00    0.00</time>
   <time name="total">    0.34    0.34</time>
   <energy>
    <i name="e_fr_energy">    -24.01072288 </i>
    <i name="e_wo_entrp">    -24.01072288 </i>
    <i name="e_0_energy">    -24.01072288 </i>
   </energy>
  </scstep>
  <scstep>
   <time name="diag">    0.04    0.04</time>
   <time name="diis">    0.14    0.14</time>
   <time name="orth">    0.00    0.00</time>
   <time name="total">    0.33    0.33</time>
   <energy>
    <i name="e_fr_energy">    -24.01072396 </i>
    <i name="e_wo_entrp">    -24.01072396 </i>
    <i name="e_0_energy">    -24.01072396 </i>
   </energy>
  </scstep>
  <scstep>
   <time name="diag">    0.04    0.04</time>
   <time name="diis">    0.12    0.12</time>
   <time name="orth">    0.00    0.00</time>
   <time name="total">    0.28    0.29</time>
   <energy>
    <i name="alphaZ">      0.24921791 </i>
    <i name="ewald">    129.00344140 </i>
    <i name="hartreedc">   -284.63789850 </i>
    <i name="XCdc">     24.80847810 </i>
    <i name="pawpsdc">    475.67167379 </i>
    <i name="pawaedc">   -476.46433256 </i>
    <i name="eentropy">     -0.00000000 </i>
    <i name="bandstr">    -89.68305907 </i>
    <i name="atom">    197.04175453 </i>
    <i name="e_fr_energy">    -24.01072441 </i>
    <i name="e_wo_entrp">    -24.01072441 </i>
    <i name="e_0_energy">    -24.01072441 </i>
   </energy>
  </scstep>
  <structure>
   <crystal>
    <varray name="basis" >
     <v>       9.83096150       0.00000000       0.00000000 </v>
     <v>       0.29347233       9.73707282       0.00000000 </v>
     <v>      -0.20353337      -0.15712284      10.15457022 </v>
    </varray>
    <i name="volume">    972.04408248 </i>
    <varray name="rec_basis" >
     <v>       0.10171945      -0.00306579       0.00199138 </v>
     <v>       0.00000000       0.10270027       0.00158909 </v>
     <v>       0.00000000       0.00000000       0.09847783 </v>
    </varray>
   </crystal>
   <varray name="positions" >
    <v>       0.53805842       0.40671329       0.36074185 </v>
    <v>       0.39387786       0.48048790       0.43842941 </v>
    <v>       0.55183333       0.56603792       0.44243914 </v>
    <v>       0.52849782       0.41613212       0.53947622 </v>
    <v>       0.50291536       0.46786177       0.44582389 </v>
   </varray>
  </structure>
  <varray name="forces" >
   <v>       0.02534229      -0.18851243       0.11758048 </v>
   <v>      -0.68015928       0.22910177      -0.07980949 </v>
   <v>       0.07944947       0.42193654       0.13059953 </v>
   <v>       0.10819541       0.06829822      -0.28880723 </v>
   <v>       0.46727228      -0.53062908       0.12074425 </v>
  </varray>
  <varray name="stress" >
   <v>       0.66753357      -0.13012937       0.21061510 </v>
   <v>      -0.13012936       0.18982903       0.32007181 </v>
   <v>       0.21061511       0.32007180      -1.24529888 </v>
  </varray>
  <energy>
   <i name="e_fr_energy">    -24.01072441 </i>
   <i name="e_wo_entrp">    -24.01072441 </i>
   <i name="e_0_energy">     -0.00000000 </i>
   <i name="kinetic">      0.01014395 </i>
   <i name="lattice kinetic">      0.00000000 </i>
   <i name="nosepot">      0.00000000 </i>
   <i name="nosekinetic">      0.00000000 </i>
   <i name="total">    -24.00058046 </i>
  </energy>
  <time name="totalsc">    1.84    1.85</time>
 </calculation>
 <calculation>
  <scstep>
   <time name="dav">    0.22    0.22</time>
   <time name="total">    0.36    0.37</time>
   <energy>
    <i name="alphaZ">      0.24921791 </i>
    <i name="ewald">    128.54656619 </i>
    <i name="hartreedc">   -284.20320892 </i>
    <i name="XCdc">     24.78574990 </i>
    <i name="pawpsdc">    472.77196650 </i>
    <i name="pawaedc">   -473.56244004 </i>
    <i name="eentropy">     -0.00000000 </i>
    <i name="bandstr">    -89.64699478 </i>
    <i name="atom">    197.04175453 </i>
    <i name="e_fr_energy">    -24.01738872 </i>
    <i name="e_wo_entrp">    -24.01738872 </i>
    <i name="e_0_energy">    -24.01738872 </i>
   </energy>
  </scstep>
  <scstep>
   <time name="diag">    0.04    0.04</time>
   <time name="diis">    0.16    0.16</time>
   <time name="orth">    0.00    0.00</time>
   <time name="total">    0.34    0.34</time>
   <energy>
    <i name="e_fr_energy">    -24.01738430 </i>
    <i name="e_wo_entrp">    -24.01738430 </i>
    <i name="e_0_energy">    -24.01738430 </i>
   </energy>
  </scstep>
  <scstep>
   <time name="diag">    0.04    0.04</time>
   <time name="diis">    0.16    0.16</time>
   <time name="orth">    0.00    0.00</time>
   <time name="total">    0.35    0.35</time>
   <energy>
    <i name="e_fr_energy">    -24.01738425 </i>
    <i name="e_wo_entrp">    -24.01738425 </i>
    <i name="e_0_energy">    -24.01738425 </i>
   </energy>
  </scstep>
  <scstep>
   <time name="diag">    0.04    0.04</time>
   <time name="diis">    0.13    0.13</time>
   <time name="orth">    0.00    0.00</time>
   <time name="total">    0.30    0.31</time>
   <energy>
    <i name="alphaZ">      0.24921791 </i>
    <i name="ewald">    128.54656619 </i>
    <i name="hartreedc">   -284.24317798 </i>
    <i name="XCdc">     24.78750340 </i>
    <i name="pawpsdc">    472.93081518 </i>
    <i name="pawaedc">   -473.72180524 </i>
    <i name="eentropy">     -0.00000000 </i>
    <i name="bandstr">    -89.60825813 </i>
    <i name="atom">    197.04175453 </i>
    <i name="e_fr_energy">    -24.01738416 </i>
    <i name="e_wo_entrp">    -24.01738416 </i>
    <i name="e_0_energy">    -24.01738416 </i>
   </energy>
  </scstep>
  <structure>
   <crystal>
    <varray name="basis" >
     <v>       9.83096150       0.00000000       0.00000000 </v>
     <v>       0.29347233       9.73707282       0.00000000 </v>
     <v>      -0.20353337      -0.15712284      10.15457022 </v>
    </varray>
    <i name="volume">    972.04408248 </i>
    <varray name="rec_basis" >
     <v>       0.10171945      -0.00306579       0.00199138 </v>
     <v>       0.00000000       0.10270027       0.00158909 </v>
     <v>       0.00000000       0.00000000       0.09847783 </v>
    </varray>
   </crystal>
   <varray name="positions" >
    <v>       0.53808453       0.40656983       0.36083149 </v>
    <v>       0.39326405       0.48067241       0.43836422 </v>
    <v>       0.55190770       0.56640380       0.44253455 </v>
    <v>       0.52856905       0.41619291       0.53924053 </v>
    <v>       0.50295216       0.46782283       0.44583353 </v>
   </varray>
  </structure>
  <varray name="forces" >
   <v>       0.02314396      -0.17637305       0.10697276 </v>
   <v>      -0.45168397       0.19486669      -0.06170888 </v>
   <v>       0.02552931       0.30935130       0.12481907 </v>
   <v>       0.11168669       0.03688542      -0.21725931 </v>
   <v>       0.29114074      -0.36433476       0.04710355 </v>
  </varray>
  <varray name="stress" >
   <v>       0.23009066      -0.16998495       0.19430253 </v>
   <v>      -0.16998495       0.02537462       0.26406104 </v>
   <v>       0.19430252       0.26406104      -1.11940969 </v>
  </varray>
  <energy>
   <i name="e_fr_energy">    -24.01738416 </i>
   <i name="e_wo_entrp">    -24.01738416 </i>
   <i name="e_0_energy">     -0.00000000 </i>
   <i name="kinetic">      0.01668122 </i>
   <i name="lattice kinetic">      0.00000000 </i>
   <i name="nosepot">      0.00000000 </i>
   <i name="nosekinetic">      0.00000000 </i>
   <i name="total">    -24.00070294 </i>
  </energy>
  <time name="totalsc">    1.97    1.98</time>
 </calculation>
 <calculation>
  <scstep>
   <time name="dav">    0.15    0.15</time>
   <time name="total">    0.31    0.31</time>
   <energy>
    <i name="alphaZ">      0.24921791 </i>
    <i name="ewald">    128.01084971 </i>
    <i name="hartreedc">   -283.76803642 </i>
    <i name="XCdc">     24.76239300 </i>
    <i name="pawpsdc">    469.77094288 </i>
    <i name="pawaedc">   -470.55993511 </i>
    <i name="eentropy">     -0.00000000 </i>
    <i name="bandstr">    -89.52969481 </i>
    <i name="atom">    197.04175453 </i>
    <i name="e_fr_energy">    -24.02250830 </i>
    <i name="e_wo_entrp">    -24.02250830 </i>
    <i name="e_0_energy">    -24.02250830 </i>
   </energy>
  </scstep>
  <scstep>
   <time name="diag">    0.04    0.04</time>
   <time name="diis">    0.16    0.16</time>
   <time name="orth">    0.00    0.00</time>
   <time name="total">    0.36    0.36</time>
   <energy>
    <i name="e_fr_energy">    -24.02251326 </i>
    <i name="e_wo_entrp">    -24.02251326 </i>
    <i name="e_0_energy">    -24.02251326 </i>
   </energy>
  </scstep>
  <scstep>
   <time name="diag">    0.04    0.04</time>
   <time name="diis">    0.12    0.13</time>
   <time name="orth">    0.00    0.00</time>
   <time name="total">    0.32    0.33</time>
   <energy>
    <i name="e_fr_energy">    -24.02251731 </i>
    <i name="e_wo_entrp">    -24.02251731 </i>
    <i name="e_0_energy">    -24.02251731 </i>
   </energy>
  </scstep>
  <scstep>
   <time name="diag">    0.04    0.04</time>
   <time name="diis">    0.13    0.13</time>
   <time name="orth">    0.00    0.00</time>
   <time name="total">    0.34    0.34</time>
   <energy>
    <i name="e_fr_energy">    -24.02252236 </i>
    <i name="e_wo_entrp">    -24.02252236 </i>
    <i name="e_0_energy">    -24.02252236 </i>
   </energy>
  </scstep>
  <scstep>
   <time name="diag">    0.04    0.04</time>
   <time name="diis">    0.13    0.13</time>
   <time name="orth">    0.00    0.00</time>
   <time name="total">    0.33    0.33</time>
   <energy>
    <i name="e_fr_energy">    -24.02252780 </i>
    <i name="e_wo_entrp">    -24.02252780 </i>
    <i name="e_0_energy">    -24.02252780 </i>
   </energy>
  </scstep>
  <scstep>
   <time name="diag">    0.04    0.04</time>
   <time name="diis">    0.12    0.12</time>
   <time name="orth">    0.00    0.00</time>
   <time name="total">    0.32    0.32</time>
   <energy>
    <i name="e_fr_energy">    -24.02253275 </i>
    <i name="e_wo_entrp">    -24.02253275 </i>
    <i name="e_0_energy">    -24.02253275 </i>
   </energy>
  </scstep>
  <scstep>
   <time name="diag">    0.04    0.04</time>
   <time name="diis">    0.12    0.12</time>
   <time name="orth">    0.00    0.00</time>
   <time name="total">    0.31    0.32</time>
   <energy>
    <i name="e_fr_energy">    -24.02253382 </i>
    <i name="e_wo_entrp">    -24.02253382 </i>
    <i name="e_0_energy">    -24.02253382 </i>
   </energy>
  </scstep>
  <scstep>
   <time name="diag">    0.04    0.04</time>
   <time name="diis">    0.12    0.13</time>
   <time name="orth">    0.00    0.00</time>
   <time name="total">    0.29    0.30</time>
   <energy>
    <i name="alphaZ">      0.24921791 </i>
    <i name="ewald">    128.01084971 </i>
    <i name="hartreedc">   -283.77778193 </i>
    <i name="XCdc">     24.76278895 </i>
    <i name="pawpsdc">    469.57160724 </i>
    <i name="pawaedc">   -470.36064653 </i>
    <i name="eentropy">     -0.00000000 </i>
    <i name="bandstr">    -89.52032467 </i>
    <i name="atom">    197.04175453 </i>
    <i name="e_fr_energy">    -24.02253478 </i>
    <i name="e_wo_entrp">    -24.02253478 </i>
    <i name="e_0_energy">    -24.02253478 </i>
   </energy>
  </scstep>
  <structure>
   <crystal>
    <varray name="basis" >
     <v>       9.83096150       0.00000000       0.00000000 </v>
     <v>       0.29347233       9.73707282       0.00000000 </v>
     <v>      -0.20353337      -0.15712284      10.15457022 </v>
    </varray>
    <i name="volume">    972.04408248 </i>
    <varray name="rec_basis" >
     <v>       0.10171945      -0.00306579       0.00199138 </v>
     <v>       0.00000000       0.10270027       0.00158909 </v>
     <v>       0.00000000       0.00000000       0.09847783 </v>
    </varray>
   </crystal>
   <varray name="positions" >
    <v>       0.53811815       0.40638308       0.36094654 </v>
    <v>       0.39253767       0.48090495       0.43828437 </v>
    <v>       0.55198664       0.56684679       0.44265961 </v>
    <v>       0.52866636       0.41626199       0.53895324 </v>
    <v>       0.50299517       0.46777639       0.44584411 </v>
   </varray>
  </structure>
  <varray name="forces" >
   <v>       0.02004337      -0.15985048       0.09444364 </v>
   <v>      -0.19046355       0.15363426      -0.04039239 </v>
   <v>      -0.03686061       0.17586409       0.11690392 </v>
   <v>       0.11500179      -0.00062857      -0.13041058 </v>
   <v>       0.09221498      -0.16868441      -0.04047625 </v>
  </varray>
  <varray name="stress" >
   <v>      -0.27169235      -0.21495704       0.17461515 </v>
   <v>      -0.21495704      -0.16833597       0.19524802 </v>
   <v>       0.17461515       0.19524802      -0.96356994 </v>
  </varray>
  <energy>
   <i name="e_fr_energy">    -24.02253478 </i>
   <i name="e_wo_entrp">    -24.02253478 </i>
   <i name="e_0_energy">     -0.00000000 </i>
   <i name="kinetic">      0.02175210 </i>
   <i name="lattice kinetic">      0.00000000 </i>
   <i name="nosepot">      0.00000000 </i>
   <i name="nosekinetic">      0.00000000 </i>
   <i name="total">    -24.00078269 </i>
  </energy>
  <time name="totalsc">    3.19    3.21</time>
 </calculation>
 <calculation>
  <scstep>
   <time name="dav">    0.15    0.15</time>
   <time name="total">    0.31    0.31</time>
   <energy>
    <i name="alphaZ">      0.24921791 </i>
    <i name="ewald">    127.44452608 </i>
    <i name="hartreedc">   -283.31209326 </i>
    <i name="XCdc">     24.73791906 </i>
    <i name="pawpsdc">    466.14850769 </i>
    <i name="pawaedc">   -466.93589236 </i>
    <i name="eentropy">     -0.00000000 </i>
    <i name="bandstr">    -89.39876347 </i>
    <i name="atom">    197.04175453 </i>
    <i name="e_fr_energy">    -24.02482382 </i>
    <i name="e_wo_entrp">    -24.02482382 </i>
    <i name="e_0_energy">    -24.02482382 </i>
   </energy>
  </scstep>
  <scstep>
   <time name="diag">    0.04    0.04</time>
   <time name="diis">    0.16    0.16</time>
   <time name="orth">    0.00    0.00</time>
   <time name="total">    0.36    0.37</time>
   <energy>
    <i name="e_fr_energy">    -24.02482415 </i>
    <i name="e_wo_entrp">    -24.02482415 </i>
    <i name="e_0_energy">    -24.02482415 </i>
   </energy>
  </scstep>
  <scstep>
   <time name="diag">    0.04    0.04</time>
   <time name="diis">    0.16    0.16</time>
   <time name="orth">    0.00    0.00</time>
   <time name="total">    0.35    0.36</time>
   <energy>
    <i name="e_fr_energy">    -24.02482620 </i>
    <i name="e_wo_entrp">    -24.02482620 </i>
    <i name="e_0_energy">    -24.02482620 </i>
   </energy>
  </scstep>
  <scstep>
   <time name="diag">    0.04    0.04</time>
   <time name="diis">    0.13    0.13</time>
   <time name="orth">    0.00    0.00</time>
   <time name="total">    0.30    0.31</time>
   <energy>
    <i name="alphaZ">      0.24921791 </i>
    <i name="ewald">    127.44452608 </i>
    <i name="hartreedc">   -283.28422313 </i>
    <i name="XCdc">     24.73664264 </i>
    <i name="pawpsdc">    466.15365588 </i>
    <i name="pawaedc">   -466.94067898 </i>
    <i name="eentropy">     -0.00000000 </i>
    <i name="bandstr">    -89.42572143 </i>
    <i name="atom">    197.04175453 </i>
    <i name="e_fr_energy">    -24.02482651 </i>
    <i name="e_wo_entrp">    -24.02482651 </i>
    <i name="e_0_energy">    -24.02482651 </i>
   </energy>
  </scstep>
  <structure>
   <crystal>
    <varray name="basis" >
     <v>       9.83096150       0.00000000       0.00000000 </v>
     <v>       0.29347233       9.73707282       0.00000000 </v>
     <v>      -0.20353337      -0.15712284      10.15457022 </v>
    </varray>
    <i name="volume">    972.04408248 </i>
    <varray name="rec_basis" >
     <v>       0.10171945      -0.00306579       0.00199138 </v>
     <v>       0.00000000       0.10270027       0.00158909 </v>
     <v>       0.00000000       0.00000000       0.09847783 </v>
    </varray>
   </crystal>
   <varray name="positions" >
    <v>       0.53815832       0.40615708       0.36108403 </v>
    <v>       0.39176324       0.48117539       0.43819493 </v>
    <v>       0.55205580       0.56733378       0.44281244 </v>
    <v>       0.52879127       0.41633042       0.53863496 </v>
    <v>       0.50304014       0.46772645       0.44585388 </v>
   </varray>
  </structure>
  <varray name="forces" >
   <v>       0.01638047      -0.13976630       0.08028424 </v>
   <v>       0.07571430       0.10858445      -0.01778334 </v>
   <v>      -0.10065128       0.03435382       0.10668257 </v>
   <v>       0.11747719      -0.04127337      -0.03452431 </v>
   <v>      -0.10920384       0.03844941      -0.13471434 </v>
  </varray>
  <varray name="stress" >
   <v>      -0.79165592      -0.25812291       0.15265845 </v>
   <v>      -0.25812291      -0.37986281       0.11720929 </v>
   <v>       0.15265844       0.11720929      -0.79322163 </v>
  </varray>
  <energy>
   <i name="e_fr_energy">    -24.02482651 </i>
   <i name="e_wo_entrp">    -24.02482651 </i>
   <i name="e_0_energy">     -0.00000000 </i>
   <i name="kinetic">      0.02402866 </i>
   <i name="lattice kinetic">      0.00000000 </i>
   <i name="nosepot">      0.00000000 </i>
   <i name="nosekinetic">      0.00000000 </i>
   <i name="total">    -24.00079785 </i>
  </energy>
  <time name="totalsc">    1.91    1.95</time>
 </calculation>
 <calculation>
  <scstep>
   <time name="dav">    0.15    0.15</time>
   <time name="total">    0.29    0.30</time>
   <energy>
    <i name="alphaZ">      0.24921791 </i>
    <i name="ewald">    126.89354668 </i>
    <i name="hartreedc">   -282.81243250 </i>
    <i name="XCdc">     24.71171412 </i>
    <i name="pawpsdc">    462.95892024 </i>
    <i name="pawaedc">   -463.74422708 </i>
    <i name="eentropy">     -0.00000000 </i>
    <i name="bandstr">    -89.32243027 </i>
    <i name="atom">    197.04175453 </i>
    <i name="e_fr_energy">    -24.02393638 </i>
    <i name="e_wo_entrp">    -24.02393638 </i>
    <i name="e_0_energy">    -24.02393638 </i>
   </energy>
  </scstep>
  <scstep>
   <time name="diag">    0.04    0.04</time>
   <time name="diis">    0.16    0.16</time>
   <time name="orth">    0.00    0.00</time>
   <time name="total">    0.34    0.35</time>
   <energy>
    <i name="e_fr_energy">    -24.02393945 </i>
    <i name="e_wo_entrp">    -24.02393945 </i>
    <i name="e_0_energy">    -24.02393945 </i>
   </energy>
  </scstep>
  <scstep>
   <time name="diag">    0.04    0.04</time>
   <time name="diis">    0.12    0.13</time>
   <time name="orth">    0.00    0.00</time>
   <time name="total">    0.31    0.32</time>
   <energy>
    <i name="e_fr_energy">    -24.02394107 </i>
    <i name="e_wo_entrp">    -24.02394107 </i>
    <i name="e_0_energy">    -24.02394107 </i>
   </energy>
  </scstep>
  <scstep>
   <time name="diag">    0.04    0.04</time>
   <time name="diis">    0.12    0.12</time>
   <time name="orth">    0.00    0.00</time>
   <time name="total">    0.30    0.31</time>
   <energy>
    <i name="e_fr_energy">    -24.02394371 </i>
    <i name="e_wo_entrp">    -24.02394371 </i>
    <i name="e_0_energy">    -24.02394371 </i>
   </energy>
  </scstep>
  <scstep>
   <time name="diag">    0.04    0.04</time>
   <time name="diis">    0.12    0.12</time>
   <time name="orth">    0.00    0.00</time>
   <time name="total">    0.30    0.31</time>
   <energy>
    <i name="e_fr_energy">    -24.02394681 </i>
    <i name="e_wo_entrp">    -24.02394681 </i>
    <i name="e_0_energy">    -24.02394681 </i>
   </energy>
  </scstep>
  <scstep>
   <time name="diag">    0.04    0.04</time>
   <time name="diis">    0.12    0.12</time>
   <time name="orth">    0.00    0.00</time>
   <time name="total">    0.30    0.31</time>
   <energy>
    <i name="e_fr_energy">    -24.02394935 </i>
    <i name="e_wo_entrp">    -24.02394935 </i>
    <i name="e_0_energy">    -24.02394935 </i>
   </energy>
  </scstep>
  <scstep>
   <time name="diag">    0.04    0.04</time>
   <time name="diis">    0.12    0.12</time>
   <time name="orth">    0.00    0.00</time>
   <time name="total">    0.29    0.29</time>
   <energy>
    <i name="alphaZ">      0.24921791 </i>
    <i name="ewald">    126.89354668 </i>
    <i name="hartreedc">   -282.79657156 </i>
    <i name="XCdc">     24.71104966 </i>
    <i name="pawpsdc">    462.88910765 </i>
    <i name="pawaedc">   -463.67423757 </i>
    <i name="eentropy">     -0.00000000 </i>
    <i name="bandstr">    -89.33781695 </i>
    <i name="atom">    197.04175453 </i>
    <i name="e_fr_energy">    -24.02394965 </i>
    <i name="e_wo_entrp">    -24.02394965 </i>
    <i name="e_0_energy">    -24.02394965 </i>
   </energy>
  </scstep>
  <structure>
   <crystal>
    <varray name="basis" >
     <v>       9.83096150       0.00000000       0.00000000 </v>
     <v>       0.29347233       9.73707282       0.00000000 </v>
     <v>      -0.20353337      -0.15712284      10.15457022 </v>
    </varray>
    <i name="volume">    972.04408248 </i>
    <varray name="rec_basis" >
     <v>       0.10171945      -0.00306579       0.00199138 </v>
     <v>       0.00000000       0.10270027       0.00158909 </v>
     <v>       0.00000000       0.00000000       0.09847783 </v>
    </varray>
   </crystal>
   <varray name="positions" >
    <v>       0.53820394       0.40589676       0.36124058 </v>
    <v>       0.39100650       0.48147265       0.43810126 </v>
    <v>       0.55210053       0.56782969       0.44299061 </v>
    <v>       0.52894515       0.41638848       0.53830848 </v>
    <v>       0.50308281       0.46767725       0.44586099 </v>
   </varray>
  </structure>
  <varray name="forces" >
   <v>       0.01262518      -0.11716598       0.06460228 </v>
   <v>       0.32365380       0.06256763       0.00446813 </v>
   <v>      -0.15925565      -0.10305401       0.09424515 </v>
   <v>       0.11823575      -0.08163526       0.06330167 </v>
   <v>      -0.29550123       0.23929768      -0.22670408 </v>
  </varray>
  <varray name="stress" >
   <v>      -1.28647186      -0.29385100       0.12907861 </v>
   <v>      -0.29385099      -0.59574325       0.03603900 </v>
   <v>       0.12907862       0.03603900      -0.62390731 </v>
  </varray>
  <energy>
   <i name="e_fr_energy">    -24.02394965 </i>
   <i name="e_wo_entrp">    -24.02394965 </i>
   <i name="e_0_energy">     -0.00000000 </i>
   <i name="kinetic">      0.02319330 </i>
   <i name="lattice kinetic">      0.00000000 </i>
   <i name="nosepot">      0.00000000 </i>
   <i name="nosekinetic">      0.00000000 </i>
   <i name="total">    -24.00075635 </i>
  </energy>
  <time name="totalsc">    2.72    2.80</time>
 </calculation>
 <calculation>
  <scstep>
   <time name="dav">    0.17    0.18</time>
   <time name="total">    0.32    0.33</time>
   <energy>
    <i name="alphaZ">      0.24921791 </i>
    <i name="ewald">    126.39733500 </i>
    <i name="hartreedc">   -282.33402300 </i>
    <i name="XCdc">     24.68698045 </i>
    <i name="pawpsdc">    460.11835775 </i>
    <i name="pawaedc">   -460.90161439 </i>
    <i name="eentropy">     -0.00000000 </i>
    <i name="bandstr">    -89.27856937 </i>
    <i name="atom">    197.04175453 </i>
    <i name="e_fr_energy">    -24.02056111 </i>
    <i name="e_wo_entrp">    -24.02056111 </i>
    <i name="e_0_energy">    -24.02056111 </i>
   </energy>
  </scstep>
  <scstep>
   <time name="diag">    0.04    0.04</time>
   <time name="diis">    0.15    0.16</time>
   <time name="orth">    0.00    0.00</time>
   <time name="total">    0.35    0.35</time>
   <energy>
    <i name="e_fr_energy">    -24.02056479 </i>
    <i name="e_wo_entrp">    -24.02056479 </i>
    <i name="e_0_energy">    -24.02056479 </i>
   </energy>
  </scstep>
  <scstep>
   <time name="diag">    0.04    0.04</time>
   <time name="diis">    0.15    0.15</time>
   <time name="orth">    0.00    0.00</time>
   <time name="total">    0.34    0.35</time>
   <energy>
    <i name="e_fr_energy">    -24.02057047 </i>
    <i name="e_wo_entrp">    -24.02057047 </i>
    <i name="e_0_energy">    -24.02057047 </i>
   </energy>
  </scstep>
  <scstep>
   <time name="diag">    0.04    0.04</time>
   <time name="diis">    0.12    0.13</time>
   <time name="orth">    0.00    0.00</time>
   <time name="total">    0.31    0.32</time>
   <energy>
    <i name="e_fr_energy">    -24.02057330 </i>
    <i name="e_wo_entrp">    -24.02057330 </i>
    <i name="e_0_energy">    -24.02057330 </i>
   </energy>
  </scstep>
  <scstep>
   <time name="diag">    0.04    0.04</time>
   <time name="diis">    0.12    0.13</time>
   <time name="orth">    0.00    0.00</time>
   <time name="total">    0.32    0.33</time>
   <energy>
    <i name="e_fr_energy">    -24.02058026 </i>
    <i name="e_wo_entrp">    -24.02058026 </i>
    <i name="e_0_energy">    -24.02058026 </i>
   </energy>
  </scstep>
  <scstep>
   <time name="diag">    0.04    0.04</time>
   <time name="diis">    0.12    0.13</time>
   <time name="orth">    0.00    0.00</time>
   <time name="total">    0.32    0.33</time>
   <energy>
    <i name="e_fr_energy">    -24.02058229 </i>
    <i name="e_wo_entrp">    -24.02058229 </i>
    <i name="e_0_energy">    -24.02058229 </i>
   </energy>
  </scstep>
  <scstep>
   <time name="diag">    0.04    0.04</time>
   <time name="diis">    0.12    0.12</time>
   <time name="orth">    0.00    0.00</time>
   <time name="total">    0.29    0.30</time>
   <energy>
    <i name="alphaZ">      0.24921791 </i>
    <i name="ewald">    126.39733500 </i>
    <i name="hartreedc">   -282.35769616 </i>
    <i name="XCdc">     24.68803315 </i>
    <i name="pawpsdc">    460.01949021 </i>
    <i name="pawaedc">   -460.80296287 </i>
    <i name="eentropy">     -0.00000000 </i>
    <i name="bandstr">    -89.25575474 </i>
    <i name="atom">    197.04175453 </i>
    <i name="e_fr_energy">    -24.02058297 </i>
    <i name="e_wo_entrp">    -24.02058297 </i>
    <i name="e_0_energy">    -24.02058297 </i>
   </energy>
  </scstep>
  <structure>
   <crystal>
    <varray name="basis" >
     <v>       9.83096150       0.00000000       0.00000000 </v>
     <v>       0.29347233       9.73707282       0.00000000 </v>
     <v>      -0.20353337      -0.15712284      10.15457022 </v>
    </varray>
    <i name="volume">    972.04408248 </i>
    <varray name="rec_basis" >
     <v>       0.10171945      -0.00306579       0.00199138 </v>
     <v>       0.00000000       0.10270027       0.00158909 </v>
     <v>       0.00000000       0.00000000       0.09847783 </v>
    </varray>
   </crystal>
   <varray name="positions" >
    <v>       0.53825383       0.40560767       0.36141249 </v>
    <v>       0.39032873       0.48178543       0.43800866 </v>
    <v>       0.55210740       0.56830042       0.44319117 </v>
    <v>       0.52912895       0.41642657       0.53799704 </v>
    <v>       0.50311921       0.46763291       0.44586362 </v>
   </varray>
  </structure>
  <varray name="forces" >
   <v>       0.00852900      -0.09177251       0.04900679 </v>
   <v>       0.53703716       0.01795688       0.02511775 </v>
   <v>      -0.20807190      -0.22741412       0.07967413 </v>
   <v>       0.11567114      -0.11688948       0.15352852 </v>
   <v>      -0.45348828       0.41790619      -0.30744887 </v>
  </varray>
  <varray name="stress" >
   <v>      -1.71811924      -0.31669655       0.10371898 </v>
   <v>      -0.31669655      -0.80040890      -0.04231508 </v>
   <v>       0.10371898      -0.04231508      -0.46715026 </v>
  </varray>
  <energy>
   <i name="e_fr_energy">    -24.02058297 </i>
   <i name="e_wo_entrp">    -24.02058297 </i>
   <i name="e_0_energy">     -0.00000000 </i>
   <i name="kinetic">      0.01991905 </i>
   <i name="lattice kinetic">      0.00000000 </i>
   <i name="nosepot">      0.00000000 </i>
   <i name="nosekinetic">      0.00000000 </i>
   <i name="total">    -24.00066392 </i>
  </energy>
  <time name="totalsc">    2.84    2.91</time>
 </calculation>
 <calculation>
  <scstep>
   <time name="dav">    0.15    0.16</time>
   <time name="total">    0.30    0.31</time>
   <energy>
    <i name="alphaZ">      0.24921791 </i>
    <i name="ewald">    125.98767148 </i>
    <i name="hartreedc">   -282.00066828 </i>
    <i name="XCdc">     24.66932901 </i>
    <i name="pawpsdc">    457.75237647 </i>
    <i name="pawaedc">   -458.53459632 </i>
    <i name="eentropy">     -0.00000000 </i>
    <i name="bandstr">    -89.18119394 </i>
    <i name="atom">    197.04175453 </i>
    <i name="e_fr_energy">    -24.01610915 </i>
    <i name="e_wo_entrp">    -24.01610915 </i>
    <i name="e_0_energy">    -24.01610915 </i>
   </energy>
  </scstep>
  <scstep>
   <time name="diag">    0.04    0.04</time>
   <time name="diis">    0.15    0.16</time>
   <time name="orth">    0.00    0.00</time>
   <time name="total">    0.34    0.35</time>
   <energy>
    <i name="e_fr_energy">    -24.01611264 </i>
    <i name="e_wo_entrp">    -24.01611264 </i>
    <i name="e_0_energy">    -24.01611264 </i>
   </energy>
  </scstep>
  <scstep>
   <time name="diag">    0.04    0.04</time>
   <time name="diis">    0.12    0.13</time>
   <time name="orth">    0.00    0.00</time>
   <time name="total">    0.31    0.32</time>
   <energy>
    <i name="e_fr_energy">    -24.01611418 </i>
    <i name="e_wo_entrp">    -24.01611418 </i>
    <i name="e_0_energy">    -24.01611418 </i>
   </energy>
  </scstep>
  <scstep>
   <time name="diag">    0.04    0.04</time>
   <time name="diis">    0.12    0.12</time>
   <time name="orth">    0.00    0.00</time>
   <time name="total">    0.31    0.32</time>
   <energy>
    <i name="e_fr_energy">    -24.01611717 </i>
    <i name="e_wo_entrp">    -24.01611717 </i>
    <i name="e_0_energy">    -24.01611717 </i>
   </energy>
  </scstep>
  <scstep>
   <time name="diag">    0.04    0.04</time>
   <time name="diis">    0.12    0.12</time>
   <time name="orth">    0.00    0.00</time>
   <time name="total">    0.31    0.32</time>
   <energy>
    <i name="e_fr_energy">    -24.01611851 </i>
    <i name="e_wo_entrp">    -24.01611851 </i>
    <i name="e_0_energy">    -24.01611851 </i>
   </energy>
  </scstep>
  <scstep>
   <time name="diag">    0.04    0.04</time>
   <time name="diis">    0.12    0.12</time>
   <time name="orth">    0.00    0.00</time>
   <time name="total">    0.31    0.32</time>
   <energy>
    <i name="e_fr_energy">    -24.01612076 </i>
    <i name="e_wo_entrp">    -24.01612076 </i>
    <i name="e_0_energy">    -24.01612076 </i>
   </energy>
  </scstep>
  <scstep>
   <time name="diag">    0.04    0.04</time>
   <time name="diis">    0.10    0.11</time>
   <time name="orth">    0.00    0.00</time>
   <time name="total">    0.27    0.28</time>
   <energy>
    <i name="alphaZ">      0.24921791 </i>
    <i name="ewald">    125.98767148 </i>
    <i name="hartreedc">   -281.99137147 </i>
    <i name="XCdc">     24.66888733 </i>
    <i name="pawpsdc">    457.69788318 </i>
    <i name="pawaedc">   -458.47997583 </i>
    <i name="eentropy">     -0.00000000 </i>
    <i name="bandstr">    -89.19018813 </i>
    <i name="atom">    197.04175453 </i>
    <i name="e_fr_energy">    -24.01612100 </i>
    <i name="e_wo_entrp">    -24.01612100 </i>
    <i name="e_0_energy">    -24.01612100 </i>
   </energy>
  </scstep>
  <structure>
   <crystal>
    <varray name="basis" >
     <v>       9.83096150       0.00000000       0.00000000 </v>
     <v>       0.29347233       9.73707282       0.00000000 </v>
     <v>      -0.20353337      -0.15712284      10.15457022 </v>
    </varray>
    <i name="volume">    972.04408248 </i>
    <varray name="rec_basis" >
     <v>       0.10171945      -0.00306579       0.00199138 </v>
     <v>       0.00000000       0.10270027       0.00158909 </v>
     <v>       0.00000000       0.00000000       0.09847783 </v>
    </varray>
   </crystal>
   <varray name="positions" >
    <v>       0.53830674       0.40529603       0.36159603 </v>
    <v>       0.38978273       0.48210276       0.43792202 </v>
    <v>       0.55206529       0.56871514       0.44341066 </v>
    <v>       0.52934274       0.41643628       0.53772208 </v>
    <v>       0.50314597       0.46759710       0.44586017 </v>
   </varray>
  </structure>
  <varray name="forces" >
   <v>       0.00428489      -0.06418866       0.03422862 </v>
   <v>       0.70358205      -0.02326920       0.04315423 </v>
   <v>      -0.24297618      -0.33046319       0.06326036 </v>
   <v>       0.10857625      -0.14297496       0.22778819 </v>
   <v>      -0.57397854       0.56082950      -0.36862847 </v>
  </varray>
  <varray name="stress" >
   <v>      -2.05607685      -0.32235849       0.07632409 </v>
   <v>      -0.32235849      -0.98006555      -0.11155617 </v>
   <v>       0.07632409      -0.11155617      -0.33397994 </v>
  </varray>
  <energy>
   <i name="e_fr_energy">    -24.01612100 </i>
   <i name="e_wo_entrp">    -24.01612100 </i>
   <i name="e_0_energy">     -0.00000000 </i>
   <i name="kinetic">      0.01556081 </i>
   <i name="lattice kinetic">      0.00000000 </i>
   <i name="nosepot">      0.00000000 </i>
   <i name="nosekinetic">      0.00000000 </i>
   <i name="total">    -24.00056019 </i>
  </energy>
  <time name="totalsc">    2.81    2.89</time>
 </calculation>
 <calculation>
  <scstep>
   <time name="dav">    0.16    0.17</time>
   <time name="total">    0.31    0.32</time>
   <energy>
    <i name="alphaZ">      0.24921791 </i>
    <i name="ewald">    125.68843521 </i>
    <i name="hartreedc">   -281.72342857 </i>
    <i name="XCdc">     24.65486963 </i>
    <i name="pawpsdc">    456.08611764 </i>
    <i name="pawaedc">   -456.86723980 </i>
    <i name="eentropy">     -0.00000000 </i>
    <i name="bandstr">    -89.14189253 </i>
    <i name="atom">    197.04175453 </i>
    <i name="e_fr_energy">    -24.01216598 </i>
    <i name="e_wo_entrp">    -24.01216598 </i>
    <i name="e_0_energy">    -24.01216598 </i>
   </energy>
  </scstep>
  <scstep>
   <time name="diag">    0.04    0.04</time>
   <time name="diis">    0.15    0.15</time>
   <time name="orth">    0.00    0.00</time>
   <time name="total">    0.34    0.36</time>
   <energy>
    <i name="e_fr_energy">    -24.01216730 </i>
    <i name="e_wo_entrp">    -24.01216730 </i>
    <i name="e_0_energy">    -24.01216730 </i>
   </energy>
  </scstep>
  <scstep>
   <time name="diag">    0.04    0.04</time>
   <time name="diis">    0.12    0.12</time>
   <time name="orth">    0.00    0.00</time>
   <time name="total">    0.30    0.31</time>
   <energy>
    <i name="e_fr_energy">    -24.01216754 </i>
    <i name="e_wo_entrp">    -24.01216754 </i>
    <i name="e_0_energy">    -24.01216754 </i>
   </energy>
  </scstep>
  <scstep>
   <time name="diag">    0.04    0.04</time>
   <time name="diis">    0.12    0.12</time>
   <time name="orth">    0.00    0.00</time>
   <time name="total">    0.29    0.29</time>
   <energy>
    <i name="alphaZ">      0.24921791 </i>
    <i name="ewald">    125.68843521 </i>
    <i name="hartreedc">   -281.72317804 </i>
    <i name="XCdc">     24.65487473 </i>
    <i name="pawpsdc">    456.01954088 </i>
    <i name="pawaedc">   -456.80064251 </i>
    <i name="eentropy">     -0.00000000 </i>
    <i name="bandstr">    -89.14217110 </i>
    <i name="atom">    197.04175453 </i>
    <i name="e_fr_energy">    -24.01216839 </i>
    <i name="e_wo_entrp">    -24.01216839 </i>
    <i name="e_0_energy">    -24.01216839 </i>
   </energy>
  </scstep>
  <structure>
   <crystal>
    <varray name="basis" >
     <v>       9.83096150       0.00000000       0.00000000 </v>
     <v>       0.29347233       9.73707282       0.00000000 </v>
     <v>      -0.20353337      -0.15712284      10.15457022 </v>
    </varray>
    <i name="volume">    972.04408248 </i>
    <varray name="rec_basis" >
     <v>       0.10171945      -0.00306579       0.00199138 </v>
     <v>       0.00000000       0.10270027       0.00158909 </v>
     <v>       0.00000000       0.00000000       0.09847783 </v>
    </varray>
   </crystal>
   <varray name="positions" >
    <v>       0.53836134       0.40496862       0.36178771 </v>
    <v>       0.38940974       0.48241449       0.43784564 </v>
    <v>       0.55196632       0.56904823       0.44364518 </v>
    <v>       0.52958532       0.41641146       0.53750122 </v>
    <v>       0.50316052       0.46757274       0.44584944 </v>
   </varray>
  </structure>
  <varray name="forces" >
   <v>       0.00010005      -0.03511594       0.02069880 </v>
   <v>       0.81557792      -0.05959946       0.05784630 </v>
   <v>      -0.26118336      -0.40621953       0.04535598 </v>
   <v>       0.09588060      -0.15655793       0.27911063 </v>
   <v>      -0.65089056       0.65726213      -0.40320087 </v>
  </varray>
  <varray name="stress" >
   <v>      -2.28275846      -0.30794752       0.04659323 </v>
   <v>      -0.30794752      -1.12724588      -0.16610777 </v>
   <v>       0.04659323      -0.16610777      -0.23695768 </v>
  </varray>
  <energy>
   <i name="e_fr_energy">    -24.01216839 </i>
   <i name="e_wo_entrp">    -24.01216839 </i>
   <i name="e_0_energy">     -0.00000000 </i>
   <i name="kinetic">      0.01169564 </i>
   <i name="lattice kinetic">      0.00000000 </i>
   <i name="nosepot">      0.00000000 </i>
   <i name="nosekinetic">      0.00000000 </i>
   <i name="total">    -24.00047275 </i>
  </energy>
  <dos>
   <i name="efermi">     -8.18955561 </i>
   <total>
    <array>
     <dimension dim="1">gridpoints</dimension>
     <dimension dim="2">spin</dimension>
     <field>energy</field>
     <field>total</field>
     <field>integrated</field>
     <set>
      <set comment="spin 1">
       <r>   -18.8189     0.0000     0.0000 </r>
       <r>   -18.7470     0.0000     0.0000 </r>
       <r>   -18.6752     0.0000     0.0000 </r>
       <r>   -18.6034     0.0000     0.0000 </r>
       <r>   -18.5316     0.0000     0.0000 </r>
       <r>   -18.4598     0.0000     0.0000 </r>
       <r>   -18.3879     0.0000     0.0000 </r>
       <r>   -18.3161     0.0000     0.0000 </r>
       <r>   -18.2443     0.0000     0.0000 </r>
       <r>   -18.1725     0.0000     0.0000 </r>
       <r>   -18.1007     0.0000     0.0000 </r>
       <r>   -18.0289     0.0000     0.0000 </r>
       <r>   -17.9570     0.0000     0.0000 </r>
       <r>   -17.8852     0.0000     0.0000 </r>
       <r>   -17.8134     0.0000     0.0000 </r>
       <r>   -17.7416     0.0000     0.0000 </r>
       <r>   -17.6698     0.0000     0.0000 </r>
       <r>   -17.5979     0.0000     0.0000 </r>
       <r>   -17.5261     0.0001     0.0000 </r>
       <r>   -17.4543     0.0010     0.0001 </r>
       <r>   -17.3825     0.0097     0.0008 </r>
       <r>   -17.3107     0.0697     0.0058 </r>
       <r>   -17.2388     0.3882     0.0338 </r>
       <r>   -17.1670     1.6754     0.1545 </r>
       <r>   -17.0952     5.6062     0.5586 </r>
       <r>   -17.0234    14.5464     1.6069 </r>
       <r>   -16.9516    29.2726     3.7166 </r>
       <r>   -16.8797    45.6928     7.0094 </r>
       <r>   -16.8079    55.3301    10.9967 </r>
       <r>   -16.7361    51.9804    14.7424 </r>
       <r>   -16.6643    37.8881    17.4725 </r>
       <r>   -16.5925    21.4269    19.0164 </r>
       <r>   -16.5206     9.4016    19.6938 </r>
       <r>   -16.4488     3.2005    19.9244 </r>
       <r>   -16.3770     0.8452    19.9853 </r>
       <r>   -16.3052     0.1731    19.9977 </r>
       <r>   -16.2334     0.0275    19.9997 </r>
       <r>   -16.1616     0.0034    20.0000 </r>
       <r>   -16.0897     0.0003    20.0000 </r>
       <r>   -16.0179     0.0000    20.0000 </r>
       <r>   -15.9461     0.0000    20.0000 </r>
       <r>   -15.8743     0.0000    20.0000 </r>
       <r>   -15.8025     0.0000    20.0000 </r>
       <r>   -15.7306     0.0000    20.0000 </r>
       <r>   -15.6588     0.0000    20.0000 </r>
       <r>   -15.5870     0.0000    20.0000 </r>
       <r>   -15.5152     0.0000    20.0000 </r>
       <r>   -15.4434     0.0000    20.0000 </r>
       <r>   -15.3715     0.0000    20.0000 </r>
       <r>   -15.2997     0.0000    20.0000 </r>
       <r>   -15.2279     0.0000    20.0000 </r>
       <r>   -15.1561     0.0000    20.0000 </r>
       <r>   -15.0843     0.0000    20.0000 </r>
       <r>   -15.0124     0.0000    20.0000 </r>
       <r>   -14.9406     0.0000    20.0000 </r>
       <r>   -14.8688     0.0000    20.0000 </r>
       <r>   -14.7970     0.0000    20.0000 </r>
       <r>   -14.7252     0.0000    20.0000 </r>
       <r>   -14.6534     0.0000    20.0000 </r>
       <r>   -14.5815     0.0000    20.0000 </r>
       <r>   -14.5097     0.0000    20.0000 </r>
       <r>   -14.4379     0.0000    20.0000 </r>
       <r>   -14.3661     0.0000    20.0000 </r>
       <r>   -14.2943     0.0000    20.0000 </r>
       <r>   -14.2224     0.0000    20.0000 </r>
       <r>   -14.1506     0.0000    20.0000 </r>
       <r>   -14.0788     0.0000    20.0000 </r>
       <r>   -14.0070     0.0000    20.0000 </r>
       <r>   -13.9352     0.0000    20.0000 </r>
       <r>   -13.8633     0.0000    20.0000 </r>
       <r>   -13.7915     0.0000    20.0000 </r>
       <r>   -13.7197     0.0000    20.0000 </r>
       <r>   -13.6479     0.0000    20.0000 </r>
       <r>   -13.5761     0.0000    20.0000 </r>
       <r>   -13.5042     0.0000    20.0000 </r>
       <r>   -13.4324     0.0000    20.0000 </r>
       <r>   -13.3606     0.0000    20.0000 </r>
       <r>   -13.2888     0.0000    20.0000 </r>
       <r>   -13.2170     0.0000    20.0000 </r>
       <r>   -13.1451     0.0000    20.0000 </r>
       <r>   -13.0733     0.0000    20.0000 </r>
       <r>   -13.0015     0.0000    20.0000 </r>
       <r>   -12.9297     0.0000    20.0000 </r>
       <r>   -12.8579     0.0000    20.0000 </r>
       <r>   -12.7861     0.0000    20.0000 </r>
       <r>   -12.7142     0.0000    20.0000 </r>
       <r>   -12.6424     0.0000    20.0000 </r>
       <r>   -12.5706     0.0000    20.0000 </r>
       <r>   -12.4988     0.0000    20.0000 </r>
       <r>   -12.4270     0.0000    20.0000 </r>
       <r>   -12.3551     0.0000    20.0000 </r>
       <r>   -12.2833     0.0000    20.0000 </r>
       <r>   -12.2115     0.0000    20.0000 </r>
       <r>   -12.1397     0.0000    20.0000 </r>
       <r>   -12.0679     0.0000    20.0000 </r>
       <r>   -11.9960     0.0000    20.0000 </r>
       <r>   -11.9242     0.0000    20.0000 </r>
       <r>   -11.8524     0.0000    20.0000 </r>
       <r>   -11.7806     0.0000    20.0000 </r>
       <r>   -11.7088     0.0000    20.0000 </r>
       <r>   -11.6369     0.0000    20.0000 </r>
       <r>   -11.5651     0.0000    20.0000 </r>
       <r>   -11.4933     0.0000    20.0000 </r>
       <r>   -11.4215     0.0000    20.0000 </r>
       <r>   -11.3497     0.0000    20.0000 </r>
       <r>   -11.2778     0.0000    20.0000 </r>
       <r>   -11.2060     0.0000    20.0000 </r>
       <r>   -11.1342     0.0000    20.0000 </r>
       <r>   -11.0624     0.0000    20.0000 </r>
       <r>   -10.9906     0.0000    20.0000 </r>
       <r>   -10.9188     0.0000    20.0000 </r>
       <r>   -10.8469     0.0000    20.0000 </r>
       <r>   -10.7751     0.0000    20.0000 </r>
       <r>   -10.7033     0.0000    20.0000 </r>
       <r>   -10.6315     0.0000    20.0000 </r>
       <r>   -10.5597     0.0000    20.0000 </r>
       <r>   -10.4878     0.0000    20.0000 </r>
       <r>   -10.4160     0.0000    20.0000 </r>
       <r>   -10.3442     0.0000    20.0000 </r>
       <r>   -10.2724     0.0000    20.0000 </r>
       <r>   -10.2006     0.0000    20.0000 </r>
       <r>   -10.1287     0.0000    20.0000 </r>
       <r>   -10.0569     0.0005    20.0000 </r>
       <r>    -9.9851     0.0047    20.0004 </r>
       <r>    -9.9133     0.0360    20.0030 </r>
       <r>    -9.8415     0.2138    20.0184 </r>
       <r>    -9.7696     0.9956    20.0902 </r>
       <r>    -9.6978     3.6542    20.3538 </r>
       <r>    -9.6260    10.6443    21.1215 </r>
       <r>    -9.5542    24.8707    22.9147 </r>
       <r>    -9.4824    47.3650    26.3290 </r>
       <r>    -9.4106    75.1509    31.7449 </r>
       <r>    -9.3387   101.8798    39.0857 </r>
       <r>    -9.2669   120.5800    47.7729 </r>
       <r>    -9.1951   125.7573    56.8328 </r>
       <r>    -9.1233   114.8952    65.1109 </r>
       <r>    -9.0515    90.4781    71.6308 </r>
       <r>    -8.9796    60.2347    75.9723 </r>
       <r>    -8.9078    33.2909    78.3725 </r>
       <r>    -8.8360    15.0395    79.4570 </r>
       <r>    -8.7642     5.4831    79.8526 </r>
       <r>    -8.6924     1.5970    79.9678 </r>
       <r>    -8.6205     0.3687    79.9944 </r>
       <r>    -8.5487     0.0671    79.9992 </r>
       <r>    -8.4769     0.0096    79.9999 </r>
       <r>    -8.4051     0.0011    80.0000 </r>
       <r>    -8.3333     0.0001    80.0000 </r>
       <r>    -8.2614     0.0000    80.0000 </r>
       <r>    -8.1896     0.0000    80.0000 </r>
       <r>    -8.1178     0.0000    80.0000 </r>
       <r>    -8.0460     0.0000    80.0000 </r>
       <r>    -7.9742     0.0000    80.0000 </r>
       <r>    -7.9023     0.0000    80.0000 </r>
       <r>    -7.8305     0.0000    80.0000 </r>
       <r>    -7.7587     0.0000    80.0000 </r>
       <r>    -7.6869     0.0000    80.0000 </r>
       <r>    -7.6151     0.0000    80.0000 </r>
       <r>    -7.5433     0.0000    80.0000 </r>
       <r>    -7.4714     0.0000    80.0000 </r>
       <r>    -7.3996     0.0000    80.0000 </r>
       <r>    -7.3278     0.0000    80.0000 </r>
       <r>    -7.2560     0.0000    80.0000 </r>
       <r>    -7.1842     0.0000    80.0000 </r>
       <r>    -7.1123     0.0000    80.0000 </r>
       <r>    -7.0405     0.0000    80.0000 </r>
       <r>    -6.9687     0.0000    80.0000 </r>
       <r>    -6.8969     0.0000    80.0000 </r>
       <r>    -6.8251     0.0000    80.0000 </r>
       <r>    -6.7532     0.0000    80.0000 </r>
       <r>    -6.6814     0.0000    80.0000 </r>
       <r>    -6.6096     0.0000    80.0000 </r>
       <r>    -6.5378     0.0000    80.0000 </r>
       <r>    -6.4660     0.0000    80.0000 </r>
       <r>    -6.3941     0.0000    80.0000 </r>
       <r>    -6.3223     0.0000    80.0000 </r>
       <r>    -6.2505     0.0000    80.0000 </r>
       <r>    -6.1787     0.0000    80.0000 </r>
       <r>    -6.1069     0.0000    80.0000 </r>
       <r>    -6.0351     0.0000    80.0000 </r>
       <r>    -5.9632     0.0000    80.0000 </r>
       <r>    -5.8914     0.0000    80.0000 </r>
       <r>    -5.8196     0.0000    80.0000 </r>
       <r>    -5.7478     0.0000    80.0000 </r>
       <r>    -5.6760     0.0000    80.0000 </r>
       <r>    -5.6041     0.0000    80.0000 </r>
[...]
       <r>     0.2850     4.6176   100.4371 </r>
       <r>     0.3569    14.0569   101.4499 </r>
       <r>     0.4287    34.4861   103.9347 </r>
       <r>     0.5005    68.2982   108.8560 </r>
       <r>     0.5723   109.7746   116.7663 </r>
       <r>     0.6441   143.5576   127.1112 </r>
       <r>     0.7160   152.5679   138.1057 </r>
       <r>     0.7878   131.1759   147.5588 </r>
       <r>     0.8596    90.6510   154.0917 </r>
       <r>     0.9314    50.0007   157.6952 </r>
       <r>     1.0032    21.8715   159.2714 </r>
       <r>     1.0750     7.5470   159.8153 </r>
       <r>     1.1469     2.0458   159.9628 </r>
       <r>     1.2187     0.4343   159.9941 </r>
       <r>     1.2905     0.0720   159.9993 </r>
       <r>     1.3623     0.0093   159.9999 </r>
       <r>     1.4341     0.0009   160.0000 </r>
       <r>     1.5060     0.0001   160.0000 </r>
       <r>     1.5778     0.0000   160.0000 </r>
       <r>     1.6496     0.0000   160.0000 </r>
       <r>     1.7214     0.0000   160.0000 </r>
       <r>     1.7932     0.0000   160.0000 </r>
       <r>     1.8651     0.0000   160.0000 </r>
       <r>     1.9369     0.0000   160.0000 </r>
       <r>     2.0087     0.0000   160.0000 </r>
       <r>     2.0805     0.0000   160.0000 </r>
       <r>     2.1523     0.0000   160.0000 </r>
       <r>     2.2242     0.0000   160.0000 </r>
       <r>     2.2960     0.0000   160.0000 </r>
       <r>     2.3678     0.0000   160.0000 </r>
       <r>     2.4396     0.0000   160.0000 </r>
       <r>     2.5114     0.0000   160.0000 </r>
       <r>     2.5832     0.0000   160.0000 </r>
       <r>     2.6551     0.0000   160.0000 </r>
       <r>     2.7269     0.0000   160.0000 </r>
      </set>
     </set>
    </array>
   </total>
  </dos>
  <time name="totalsc">    2.00    2.06</time>
  <eigenvalues>
   <array>
    <dimension dim="1">band</dimension>
    <dimension dim="2">kpoint</dimension>
    <dimension dim="3">spin</dimension>
    <field>eigene</field>
    <field>occ</field>
    <set>
     <set comment="spin 1">
      <set comment="kpoint 1">
       <r>  -16.8132    1.0000 </r>
       <r>   -9.3435    1.0000 </r>
       <r>   -9.2346    1.0000 </r>
       <r>   -9.1649    1.0000 </r>
       <r>   -0.3258    0.0000 </r>
       <r>    0.5699    0.0000 </r>
       <r>    0.6755    0.0000 </r>
       <r>    0.7166    0.0000 </r>
      </set>
      <set comment="kpoint 2">
       <r>  -16.8132    1.0000 </r>
       <r>   -9.3435    1.0000 </r>
       <r>   -9.2345    1.0000 </r>
       <r>   -9.1649    1.0000 </r>
       <r>   -0.3232    0.0000 </r>
       <r>    0.5656    0.0000 </r>
       <r>    0.6726    0.0000 </r>
       <r>    0.7025    0.0000 </r>
      </set>
      <set comment="kpoint 3">
       <r>  -16.8132    1.0000 </r>
       <r>   -9.3436    1.0000 </r>
       <r>   -9.2345    1.0000 </r>
       <r>   -9.1649    1.0000 </r>
       <r>   -0.3226    0.0000 </r>
       <r>    0.5669    0.0000 </r>
       <r>    0.6674    0.0000 </r>
       <r>    0.7028    0.0000 </r>
      </set>
      <set comment="kpoint 4">
       <r>  -16.8132    1.0000 </r>
       <r>   -9.3436    1.0000 </r>
       <r>   -9.2345    1.0000 </r>
       <r>   -9.1648    1.0000 </r>
       <r>   -0.3325    0.0000 </r>
       <r>    0.5875    0.0000 </r>
       <r>    0.6970    0.0000 </r>
       <r>    0.7247    0.0000 </r>
      </set>
     </set>
    </set>
   </array>
  </eigenvalues>
  <separator name="orbital magnetization" >
   <v name="MAGDIPOLOUT">      0.00000000      0.00000000      0.00000000</v>
  </separator>
  <dos>
   <i name="efermi">     -8.18778940 </i>
   <total>
    <array>
     <dimension dim="1">gridpoints</dimension>
     <dimension dim="2">spin</dimension>
     <field>energy</field>
     <field>total</field>
     <field>integrated</field>
     <set>
      <set comment="spin 1">
       <r>   -18.8132     0.0000     0.0000 </r>
       <r>   -18.7414     0.0000     0.0000 </r>
       <r>   -18.6696     0.0000     0.0000 </r>
       <r>   -18.5979     0.0000     0.0000 </r>
       <r>   -18.5261     0.0000     0.0000 </r>
       <r>   -18.4543     0.0000     0.0000 </r>
       <r>   -18.3825     0.0000     0.0000 </r>
       <r>   -18.3107     0.0000     0.0000 </r>
       <r>   -18.2389     0.0000     0.0000 </r>
       <r>   -18.1671     0.0000     0.0000 </r>
       <r>   -18.0953     0.0000     0.0000 </r>
       <r>   -18.0235     0.0000     0.0000 </r>
       <r>   -17.9517     0.0000     0.0000 </r>
       <r>   -17.8799     0.0000     0.0000 </r>
       <r>   -17.8081     0.0000     0.0000 </r>
       <r>   -17.7363     0.0000     0.0000 </r>
       <r>   -17.6645     0.0000     0.0000 </r>
       <r>   -17.5928     0.0000     0.0000 </r>
       <r>   -17.5210     0.0000     0.0000 </r>
       <r>   -17.4492     0.0001     0.0000 </r>
       <r>   -17.3774     0.0008     0.0001 </r>
       <r>   -17.3056     0.0060     0.0005 </r>
       <r>   -17.2338     0.0340     0.0029 </r>
       <r>   -17.1620     0.1492     0.0137 </r>
       <r>   -17.0902     0.5085     0.0502 </r>
       <r>   -17.0184     1.3460     0.1468 </r>
       <r>   -16.9466     2.7681     0.3455 </r>
       <r>   -16.8748     4.4233     0.6631 </r>
       <r>   -16.8030     5.4923     1.0574 </r>
       <r>   -16.7312     5.2993     1.4378 </r>
       <r>   -16.6594     3.9732     1.7231 </r>
       <r>   -16.5876     2.3148     1.8893 </r>
       <r>   -16.5159     1.0478     1.9645 </r>
       <r>   -16.4441     0.3685     1.9910 </r>
       <r>   -16.3723     0.1007     1.9982 </r>
       <r>   -16.3005     0.0214     1.9997 </r>
       <r>   -16.2287     0.0035     2.0000 </r>
       <r>   -16.1569     0.0004     2.0000 </r>
       <r>   -16.0851     0.0000     2.0000 </r>
       <r>   -16.0133     0.0000     2.0000 </r>
       <r>   -15.9415     0.0000     2.0000 </r>
       <r>   -15.8697     0.0000     2.0000 </r>
       <r>   -15.7979     0.0000     2.0000 </r>
       <r>   -15.7261     0.0000     2.0000 </r>
       <r>   -15.6543     0.0000     2.0000 </r>
       <r>   -15.5825     0.0000     2.0000 </r>
       <r>   -15.5108     0.0000     2.0000 </r>
       <r>   -15.4390     0.0000     2.0000 </r>
       <r>   -15.3672     0.0000     2.0000 </r>
       <r>   -15.2954     0.0000     2.0000 </r>
       <r>   -15.2236     0.0000     2.0000 </r>
       <r>   -15.1518     0.0000     2.0000 </r>
       <r>   -15.0800     0.0000     2.0000 </r>
       <r>   -15.0082     0.0000     2.0000 </r>
       <r>   -14.9364     0.0000     2.0000 </r>
       <r>   -14.8646     0.0000     2.0000 </r>
       <r>   -14.7928     0.0000     2.0000 </r>
       <r>   -14.7210     0.0000     2.0000 </r>
       <r>   -14.6492     0.0000     2.0000 </r>
       <r>   -14.5774     0.0000     2.0000 </r>
       <r>   -14.5056     0.0000     2.0000 </r>
       <r>   -14.4339     0.0000     2.0000 </r>
       <r>   -14.3621     0.0000     2.0000 </r>
       <r>   -14.2903     0.0000     2.0000 </r>
       <r>   -14.2185     0.0000     2.0000 </r>
       <r>   -14.1467     0.0000     2.0000 </r>
       <r>   -14.0749     0.0000     2.0000 </r>
       <r>   -14.0031     0.0000     2.0000 </r>
       <r>   -13.9313     0.0000     2.0000 </r>
       <r>   -13.8595     0.0000     2.0000 </r>
       <r>   -13.7877     0.0000     2.0000 </r>
       <r>   -13.7159     0.0000     2.0000 </r>
       <r>   -13.6441     0.0000     2.0000 </r>
       <r>   -13.5723     0.0000     2.0000 </r>
       <r>   -13.5005     0.0000     2.0000 </r>
       <r>   -13.4288     0.0000     2.0000 </r>
       <r>   -13.3570     0.0000     2.0000 </r>
       <r>   -13.2852     0.0000     2.0000 </r>
       <r>   -13.2134     0.0000     2.0000 </r>
       <r>   -13.1416     0.0000     2.0000 </r>
       <r>   -13.0698     0.0000     2.0000 </r>
       <r>   -12.9980     0.0000     2.0000 </r>
       <r>   -12.9262     0.0000     2.0000 </r>
       <r>   -12.8544     0.0000     2.0000 </r>
       <r>   -12.7826     0.0000     2.0000 </r>
       <r>   -12.7108     0.0000     2.0000 </r>
       <r>   -12.6390     0.0000     2.0000 </r>
       <r>   -12.5672     0.0000     2.0000 </r>
       <r>   -12.4954     0.0000     2.0000 </r>
       <r>   -12.4237     0.0000     2.0000 </r>
       <r>   -12.3519     0.0000     2.0000 </r>
       <r>   -12.2801     0.0000     2.0000 </r>
       <r>   -12.2083     0.0000     2.0000 </r>
       <r>   -12.1365     0.0000     2.0000 </r>
       <r>   -12.0647     0.0000     2.0000 </r>
       <r>   -11.9929     0.0000     2.0000 </r>
       <r>   -11.9211     0.0000     2.0000 </r>
       <r>   -11.8493     0.0000     2.0000 </r>
       <r>   -11.7775     0.0000     2.0000 </r>
       <r>   -11.7057     0.0000     2.0000 </r>
       <r>   -11.6339     0.0000     2.0000 </r>
       <r>   -11.5621     0.0000     2.0000 </r>
       <r>   -11.4903     0.0000     2.0000 </r>
       <r>   -11.4185     0.0000     2.0000 </r>
       <r>   -11.3468     0.0000     2.0000 </r>
       <r>   -11.2750     0.0000     2.0000 </r>
       <r>   -11.2032     0.0000     2.0000 </r>
       <r>   -11.1314     0.0000     2.0000 </r>
       <r>   -11.0596     0.0000     2.0000 </r>
       <r>   -10.9878     0.0000     2.0000 </r>
       <r>   -10.9160     0.0000     2.0000 </r>
       <r>   -10.8442     0.0000     2.0000 </r>
       <r>   -10.7724     0.0000     2.0000 </r>
       <r>   -10.7006     0.0000     2.0000 </r>
       <r>   -10.6288     0.0000     2.0000 </r>
       <r>   -10.5570     0.0000     2.0000 </r>
       <r>   -10.4852     0.0000     2.0000 </r>
       <r>   -10.4134     0.0000     2.0000 </r>
       <r>   -10.3417     0.0000     2.0000 </r>
       <r>   -10.2699     0.0000     2.0000 </r>
       <r>   -10.1981     0.0000     2.0000 </r>
       <r>   -10.1263     0.0000     2.0000 </r>
       <r>   -10.0545     0.0000     2.0000 </r>
       <r>    -9.9827     0.0001     2.0000 </r>
       <r>    -9.9109     0.0008     2.0001 </r>
       <r>    -9.8391     0.0058     2.0005 </r>
       <r>    -9.7673     0.0340     2.0029 </r>
       <r>    -9.6955     0.1559     2.0141 </r>
       <r>    -9.6237     0.5651     2.0547 </r>
       <r>    -9.5519     1.6291     2.1716 </r>
       <r>    -9.4801     3.7709     2.4424 </r>
       <r>    -9.4083     7.0847     2.9510 </r>
       <r>    -9.3365    10.9179     3.7348 </r>
       <r>    -9.2648    13.9062     4.7332 </r>
       <r>    -9.1930    14.6728     5.7866 </r>
       <r>    -9.1212    12.7771     6.7039 </r>
       <r>    -9.0494     9.1083     7.3578 </r>
       <r>    -8.9776     5.2630     7.7357 </r>
       <r>    -8.9058     2.4418     7.9110 </r>
       <r>    -8.8340     0.9025     7.9758 </r>
       <r>    -8.7622     0.2641     7.9947 </r>
       <r>    -8.6904     0.0609     7.9991 </r>
       <r>    -8.6186     0.0110     7.9999 </r>
       <r>    -8.5468     0.0016     8.0000 </r>
       <r>    -8.4750     0.0002     8.0000 </r>
       <r>    -8.4032     0.0000     8.0000 </r>
       <r>    -8.3314     0.0000     8.0000 </r>
       <r>    -8.2597     0.0000     8.0000 </r>
       <r>    -8.1879     0.0000     8.0000 </r>
       <r>    -8.1161     0.0000     8.0000 </r>
       <r>    -8.0443     0.0000     8.0000 </r>
       <r>    -7.9725     0.0000     8.0000 </r>
       <r>    -7.9007     0.0000     8.0000 </r>
       <r>    -7.8289     0.0000     8.0000 </r>
       <r>    -7.7571     0.0000     8.0000 </r>
       <r>    -7.6853     0.0000     8.0000 </r>
       <r>    -7.6135     0.0000     8.0000 </r>
       <r>    -7.5417     0.0000     8.0000 </r>
       <r>    -7.4699     0.0000     8.0000 </r>
       <r>    -7.3981     0.0000     8.0000 </r>
       <r>    -7.3263     0.0000     8.0000 </r>
       <r>    -7.2545     0.0000     8.0000 </r>
       <r>    -7.1828     0.0000     8.0000 </r>
       <r>    -7.1110     0.0000     8.0000 </r>
       <r>    -7.0392     0.0000     8.0000 </r>
       <r>    -6.9674     0.0000     8.0000 </r>
       <r>    -6.8956     0.0000     8.0000 </r>
       <r>    -6.8238     0.0000     8.0000 </r>
       <r>    -6.7520     0.0000     8.0000 </r>
       <r>    -6.6802     0.0000     8.0000 </r>
       <r>    -6.6084     0.0000     8.0000 </r>
       <r>    -6.5366     0.0000     8.0000 </r>
       <r>    -6.4648     0.0000     8.0000 </r>
       <r>    -6.3930     0.0000     8.0000 </r>
       <r>    -6.3212     0.0000     8.0000 </r>
       <r>    -6.2494     0.0000     8.0000 </r>
       <r>    -6.1777     0.0000     8.0000 </r>
       <r>    -6.1059     0.0000     8.0000 </r>
       <r>    -6.0341     0.0000     8.0000 </r>
       <r>    -5.9623     0.0000     8.0000 </r>
       <r>    -5.8905     0.0000     8.0000 </r>
       <r>    -5.8187     0.0000     8.0000 </r>
       <r>    -5.7469     0.0000     8.0000 </r>
       <r>    -5.6751     0.0000     8.0000 </r>
       <r>    -5.6033     0.0000     8.0000 </r>
       <r>    -5.5315     0.0000     8.0000 </r>
       <r>    -5.4597     0.0000     8.0000 </r>
       <r>    -5.3879     0.0000     8.0000 </r>
       <r>    -5.3161     0.0000     8.0000 </r>
       <r>    -5.2443     0.0000     8.0000 </r>
       <r>    -5.1726     0.0000     8.0000 </r>
       <r>    -5.1008     0.0000     8.0000 </r>
       <r>    -5.0290     0.0000     8.0000 </r>
       <r>    -4.9572     0.0000     8.0000 </r>
       <r>    -4.8854     0.0000     8.0000 </r>
       <r>    -4.8136     0.0000     8.0000 </r>
       <r>    -4.7418     0.0000     8.0000 </r>
       <r>    -4.6700     0.0000     8.0000 </r>
       <r>    -4.5982     0.0000     8.0000 </r>
       <r>    -4.5264     0.0000     8.0000 </r>
       <r>    -4.4546     0.0000     8.0000 </r>
       <r>    -4.3828     0.0000     8.0000 </r>
       <r>    -4.3110     0.0000     8.0000 </r>
       <r>    -4.2392     0.0000     8.0000 </r>
       <r>    -4.1674     0.0000     8.0000 </r>
       <r>    -4.0957     0.0000     8.0000 </r>
       <r>    -4.0239     0.0000     8.0000 </r>
       <r>    -3.9521     0.0000     8.0000 </r>
       <r>    -3.8803     0.0000     8.0000 </r>
       <r>    -3.8085     0.0000     8.0000 </r>
       <r>    -3.7367     0.0000     8.0000 </r>
       <r>    -3.6649     0.0000     8.0000 </r>
       <r>    -3.5931     0.0000     8.0000 </r>
       <r>    -3.5213     0.0000     8.0000 </r>
       <r>    -3.4495     0.0000     8.0000 </r>
       <r>    -3.3777     0.0000     8.0000 </r>
       <r>    -3.3059     0.0000     8.0000 </r>
       <r>    -3.2341     0.0000     8.0000 </r>
       <r>    -3.1623     0.0000     8.0000 </r>
       <r>    -3.0906     0.0000     8.0000 </r>
       <r>    -3.0188     0.0000     8.0000 </r>
       <r>    -2.9470     0.0000     8.0000 </r>
       <r>    -2.8752     0.0000     8.0000 </r>
       <r>    -2.8034     0.0000     8.0000 </r>
       <r>    -2.7316     0.0000     8.0000 </r>
       <r>    -2.6598     0.0000     8.0000 </r>
       <r>    -2.5880     0.0000     8.0000 </r>
       <r>    -2.5162     0.0000     8.0000 </r>
       <r>    -2.4444     0.0000     8.0000 </r>
       <r>    -2.3726     0.0000     8.0000 </r>
       <r>    -2.3008     0.0000     8.0000 </r>
       <r>    -2.2290     0.0000     8.0000 </r>
       <r>    -2.1572     0.0000     8.0000 </r>
       <r>    -2.0854     0.0000     8.0000 </r>
       <r>    -2.0137     0.0000     8.0000 </r>
       <r>    -1.9419     0.0000     8.0000 </r>
       <r>    -1.8701     0.0000     8.0000 </r>
       <r>    -1.7983     0.0000     8.0000 </r>
       <r>    -1.7265     0.0000     8.0000 </r>
       <r>    -1.6547     0.0000     8.0000 </r>
       <r>    -1.5829     0.0000     8.0000 </r>
       <r>    -1.5111     0.0000     8.0000 </r>
       <r>    -1.4393     0.0000     8.0000 </r>
       <r>    -1.3675     0.0000     8.0000 </r>
       <r>    -1.2957     0.0000     8.0000 </r>
       <r>    -1.2239     0.0000     8.0000 </r>
       <r>    -1.1521     0.0000     8.0000 </r>
       <r>    -1.0803     0.0000     8.0000 </r>
       <r>    -1.0086     0.0000     8.0000 </r>
       <r>    -0.9368     0.0002     8.0000 </r>
       <r>    -0.8650     0.0017     8.0001 </r>
       <r>    -0.7932     0.0114     8.0010 </r>
       <r>    -0.7214     0.0590     8.0052 </r>
       <r>    -0.6496     0.2367     8.0222 </r>
       <r>    -0.5778     0.7374     8.0751 </r>
       <r>    -0.5060     1.7852     8.2033 </r>
       <r>    -0.4342     3.3584     8.4444 </r>
       <r>    -0.3624     4.9103     8.7969 </r>
       <r>    -0.2906     5.5797     9.1975 </r>
       <r>    -0.2188     4.9279     9.5513 </r>
       <r>    -0.1470     3.3825     9.7941 </r>
       <r>    -0.0752     1.8045     9.9237 </r>
       <r>    -0.0035     0.7486     9.9774 </r>
       <r>     0.0683     0.2457     9.9951 </r>
       <r>     0.1401     0.0893    10.0015 </r>
       <r>     0.2119     0.1495    10.0122 </r>
       <r>     0.2837     0.5191    10.0495 </r>
       <r>     0.3555     1.5480    10.1606 </r>
       <r>     0.4273     3.7165    10.4274 </r>
       <r>     0.4991     7.2119    10.9452 </r>
       <r>     0.5709    11.3692    11.7614 </r>
       <r>     0.6427    14.5914    12.8090 </r>
       <r>     0.7145    15.2217    13.9018 </r>
       <r>     0.7863    12.8466    14.8241 </r>
       <r>     0.8581     8.7146    15.4498 </r>
       <r>     0.9299     4.7194    15.7886 </r>
       <r>     1.0017     2.0278    15.9342 </r>
       <r>     1.0734     0.6879    15.9836 </r>
       <r>     1.1452     0.1835    15.9967 </r>
       <r>     1.2170     0.0384    15.9995 </r>
       <r>     1.2888     0.0063    15.9999 </r>
       <r>     1.3606     0.0008    16.0000 </r>
       <r>     1.4324     0.0001    16.0000 </r>
       <r>     1.5042     0.0000    16.0000 </r>
       <r>     1.5760     0.0000    16.0000 </r>
       <r>     1.6478     0.0000    16.0000 </r>
       <r>     1.7196     0.0000    16.0000 </r>
       <r>     1.7914     0.0000    16.0000 </r>
       <r>     1.8632     0.0000    16.0000 </r>
       <r>     1.9350     0.0000    16.0000 </r>
       <r>     2.0068     0.0000    16.0000 </r>
       <r>     2.0785     0.0000    16.0000 </r>
       <r>     2.1503     0.0000    16.0000 </r>
       <r>     2.2221     0.0000    16.0000 </r>
       <r>     2.2939     0.0000    16.0000 </r>
       <r>     2.3657     0.0000    16.0000 </r>
       <r>     2.4375     0.0000    16.0000 </r>
       <r>     2.5093     0.0000    16.0000 </r>
       <r>     2.5811     0.0000    16.0000 </r>
       <r>     2.6529     0.0000    16.0000 </r>
       <r>     2.7247     0.0000    16.0000 </r>
      </set>
     </set>
    </array>
   </total>
  </dos>
 </calculation>
 <structure name="finalpos" >
  <crystal>
   <varray name="basis" >
    <v>       9.83096150       0.00000000       0.00000000 </v>
    <v>       0.29347233       9.73707282       0.00000000 </v>
    <v>      -0.20353337      -0.15712284      10.15457022 </v>
   </varray>
   <i name="volume">    972.04408248 </i>
   <varray name="rec_basis" >
    <v>       0.10171945      -0.00306579       0.00199138 </v>
    <v>       0.00000000       0.10270027       0.00158909 </v>
    <v>       0.00000000       0.00000000       0.09847783 </v>
   </varray>
  </crystal>
  <varray name="positions" >
   <v>       0.53841634       0.40463260       0.36198432 </v>
   <v>       0.38923759       0.48271168       0.43778300 </v>
   <v>       0.55180649       0.56928086       0.44389048 </v>
   <v>       0.52985394       0.41634892       0.53734667 </v>
   <v>       0.50316122       0.46756181       0.44583073 </v>
  </varray>
  <varray name="velocities" >
   <v>       0.00005499      -0.00033602       0.00019660 </v>
   <v>      -0.00017215       0.00029719      -0.00006264 </v>
   <v>      -0.00015983       0.00023264       0.00024530 </v>
   <v>       0.00026862      -0.00006254      -0.00015455 </v>
   <v>       0.00000070      -0.00001093      -0.00001871 </v>
  </varray>
 </structure>
</modeling>
