unknown system                          
           1
     9.830962    0.000000    0.000000
     0.293472    9.737073    0.000000
    -0.203533   -0.157123   10.154570
   H    C 
   4   1
Direct configuration=     1
   0.53803105  0.40685964  0.36064840
   0.39455662  0.48029430  0.43849976
   0.55174468  0.56564137  0.44234224
   0.52842819  0.41606348  0.53972948
   0.50287430  0.46790444  0.44581279
Direct configuration=     2
   0.53804047  0.40681051  0.36068013
   0.39432271  0.48035984  0.43847563
   0.55177597  0.56577707  0.44237474
   0.52845125  0.41608714  0.53964331
   0.50288847  0.46788981  0.44581663
Direct configuration=     3
   0.53805842  0.40671329  0.36074185
   0.39387786  0.48048790  0.43842941
   0.55183333  0.56603792  0.44243914
   0.52849782  0.41613212  0.53947622
   0.50291536  0.46786177  0.44582389
Direct configuration=     4
   0.53808453  0.40656983  0.36083149
   0.39326405  0.48067241  0.43836422
   0.55190770  0.56640380  0.44253455
   0.52856905  0.41619291  0.53924053
   0.50295216  0.46782283  0.44583353
Direct configuration=     5
   0.53811815  0.40638308  0.36094654
   0.39253767  0.48090495  0.43828437
   0.55198664  0.56684679  0.44265961
   0.52866636  0.41626199  0.53895324
   0.50299517  0.46777639  0.44584411
Direct configuration=     6
   0.53815832  0.40615708  0.36108403
   0.39176324  0.48117539  0.43819493
   0.55205580  0.56733378  0.44281244
   0.52879127  0.41633042  0.53863496
   0.50304014  0.46772645  0.44585388
Direct configuration=     7
   0.53820394  0.40589676  0.36124058
   0.39100650  0.48147265  0.43810126
   0.55210053  0.56782969  0.44299061
   0.52894515  0.41638848  0.53830848
   0.50308281  0.46767725  0.44586099
Direct configuration=     8
   0.53825383  0.40560767  0.36141249
   0.39032873  0.48178543  0.43800866
   0.55210740  0.56830042  0.44319117
   0.52912895  0.41642657  0.53799704
   0.50311921  0.46763291  0.44586362
Direct configuration=     9
   0.53830674  0.40529603  0.36159603
   0.38978273  0.48210276  0.43792202
   0.55206529  0.56871514  0.44341066
   0.52934274  0.41643628  0.53772208
   0.50314597  0.46759710  0.44586017
Direct configuration=    10
   0.53836134  0.40496862  0.36178771
   0.38940974  0.48241449  0.43784564
   0.55196632  0.56904823  0.44364518
   0.52958532  0.41641146  0.53750122
   0.50316052  0.46757274  0.44584944
