   5   5   0   0
  0.2066232E+03  0.9990039E-09  0.1019095E-08  0.1015394E-08  0.5000000E-15
  1.000000000000000E-004
  CAR 
 unknown system                          
      2.69285535    -18.95634285  301     -8.27600127      1.00000000
    -18.956  0.0000E+00  0.0000E+00
    -18.884  0.0000E+00  0.0000E+00
    -18.812  0.0000E+00  0.0000E+00
    -18.740  0.0000E+00  0.0000E+00
    -18.668  0.0000E+00  0.0000E+00
    -18.596  0.0000E+00  0.0000E+00
    -18.523  0.0000E+00  0.0000E+00
    -18.451  0.0000E+00  0.0000E+00
    -18.379  0.0000E+00  0.0000E+00
    -18.307  0.0000E+00  0.0000E+00
    -18.235  0.0000E+00  0.0000E+00
    -18.163  0.0000E+00  0.0000E+00
    -18.090  0.1254E-13  0.9021E-15
    -18.018  0.6785E-12  0.4969E-13
    -17.946  0.2923E-10  0.2152E-11
    -17.874  0.9751E-09  0.7228E-10
    -17.802  0.2520E-07  0.1885E-08
    -17.730  0.5047E-06  0.3818E-07
    -17.657  0.7835E-05  0.6017E-06
    -17.585  0.9430E-04  0.7383E-05
    -17.513  0.8801E-03  0.7067E-04
    -17.441  0.6371E-02  0.5288E-03
    -17.369  0.3578E-01  0.3102E-02
    -17.297  0.1560E+00  0.1432E-01
    -17.224  0.5276E+00  0.5226E-01
    -17.152  0.1386E+01  0.1519E+00
    -17.080  0.2826E+01  0.3551E+00
    -17.008  0.4476E+01  0.6769E+00
    -16.936  0.5506E+01  0.1073E+01
    -16.864  0.5262E+01  0.1451E+01
    -16.791  0.3906E+01  0.1732E+01
    -16.719  0.2252E+01  0.1894E+01
    -16.647  0.1009E+01  0.1966E+01
    -16.575  0.3511E+00  0.1991E+01
    -16.503  0.9492E-01  0.1998E+01
    -16.431  0.1993E-01  0.2000E+01
    -16.358  0.3250E-02  0.2000E+01
    -16.286  0.4116E-03  0.2000E+01
    -16.214  0.4048E-04  0.2000E+01
    -16.142  0.3090E-05  0.2000E+01
    -16.070  0.1832E-06  0.2000E+01
    -15.998  0.8427E-08  0.2000E+01
    -15.925  0.3009E-09  0.2000E+01
    -15.853  0.8340E-11  0.2000E+01
    -15.781  0.1793E-12  0.2000E+01
    -15.709  0.2786E-14  0.2000E+01
    -15.637  0.0000E+00  0.2000E+01
    -15.565  0.0000E+00  0.2000E+01
    -15.492  0.0000E+00  0.2000E+01
    -15.420  0.0000E+00  0.2000E+01
    -15.348  0.0000E+00  0.2000E+01
    -15.276  0.0000E+00  0.2000E+01
    -15.204  0.0000E+00  0.2000E+01
    -15.132  0.0000E+00  0.2000E+01
    -15.059  0.0000E+00  0.2000E+01
    -14.987  0.0000E+00  0.2000E+01
    -14.915  0.0000E+00  0.2000E+01
    -14.843  0.0000E+00  0.2000E+01
    -14.771  0.0000E+00  0.2000E+01
    -14.699  0.0000E+00  0.2000E+01
    -14.627  0.0000E+00  0.2000E+01
    -14.554  0.0000E+00  0.2000E+01
    -14.482  0.0000E+00  0.2000E+01
    -14.410  0.0000E+00  0.2000E+01
    -14.338  0.0000E+00  0.2000E+01
    -14.266  0.0000E+00  0.2000E+01
    -14.194  0.0000E+00  0.2000E+01
    -14.121  0.0000E+00  0.2000E+01
    -14.049  0.0000E+00  0.2000E+01
    -13.977  0.0000E+00  0.2000E+01
    -13.905  0.0000E+00  0.2000E+01
    -13.833  0.0000E+00  0.2000E+01
    -13.761  0.0000E+00  0.2000E+01
    -13.688  0.0000E+00  0.2000E+01
    -13.616  0.0000E+00  0.2000E+01
    -13.544  0.0000E+00  0.2000E+01
    -13.472  0.0000E+00  0.2000E+01
    -13.400  0.0000E+00  0.2000E+01
    -13.328  0.0000E+00  0.2000E+01
    -13.255  0.0000E+00  0.2000E+01
    -13.183  0.0000E+00  0.2000E+01
    -13.111  0.0000E+00  0.2000E+01
    -13.039  0.0000E+00  0.2000E+01
    -12.967  0.0000E+00  0.2000E+01
    -12.895  0.0000E+00  0.2000E+01
    -12.822  0.0000E+00  0.2000E+01
    -12.750  0.0000E+00  0.2000E+01
    -12.678  0.0000E+00  0.2000E+01
    -12.606  0.0000E+00  0.2000E+01
    -12.534  0.0000E+00  0.2000E+01
    -12.462  0.0000E+00  0.2000E+01
    -12.389  0.0000E+00  0.2000E+01
    -12.317  0.0000E+00  0.2000E+01
    -12.245  0.0000E+00  0.2000E+01
    -12.173  0.0000E+00  0.2000E+01
    -12.101  0.0000E+00  0.2000E+01
    -12.029  0.0000E+00  0.2000E+01
    -11.956  0.0000E+00  0.2000E+01
    -11.884  0.0000E+00  0.2000E+01
    -11.812  0.0000E+00  0.2000E+01
    -11.740  0.0000E+00  0.2000E+01
    -11.668  0.0000E+00  0.2000E+01
    -11.596  0.0000E+00  0.2000E+01
    -11.523  0.0000E+00  0.2000E+01
    -11.451  0.0000E+00  0.2000E+01
    -11.379  0.0000E+00  0.2000E+01
    -11.307  0.0000E+00  0.2000E+01
    -11.235  0.0000E+00  0.2000E+01
    -11.163  0.0000E+00  0.2000E+01
    -11.090  0.0000E+00  0.2000E+01
    -11.018  0.0000E+00  0.2000E+01
    -10.946  0.0000E+00  0.2000E+01
    -10.874  0.0000E+00  0.2000E+01
    -10.802  0.0000E+00  0.2000E+01
    -10.730  0.0000E+00  0.2000E+01
    -10.657  0.0000E+00  0.2000E+01
    -10.585  0.1701E-14  0.2000E+01
    -10.513  0.9809E-13  0.2000E+01
    -10.441  0.4816E-11  0.2000E+01
    -10.369  0.1833E-09  0.2000E+01
    -10.297  0.5428E-08  0.2000E+01
    -10.224  0.1251E-06  0.2000E+01
    -10.152  0.2243E-05  0.2000E+01
    -10.080  0.3134E-04  0.2000E+01
    -10.008  0.3413E-03  0.2000E+01
     -9.936  0.2900E-02  0.2000E+01
     -9.864  0.1924E-01  0.2002E+01
     -9.792  0.9984E-01  0.2009E+01
     -9.719  0.4061E+00  0.2038E+01
     -9.647  0.1299E+01  0.2131E+01
     -9.575  0.3280E+01  0.2367E+01
     -9.503  0.6579E+01  0.2840E+01
     -9.431  0.1057E+02  0.3600E+01
     -9.359  0.1375E+02  0.4588E+01
     -9.286  0.1465E+02  0.5642E+01
     -9.214  0.1292E+02  0.6571E+01
     -9.142  0.9479E+01  0.7252E+01
     -9.070  0.5781E+01  0.7668E+01
     -8.998  0.2907E+01  0.7877E+01
     -8.926  0.1192E+01  0.7962E+01
     -8.853  0.3941E+00  0.7991E+01
     -8.781  0.1040E+00  0.7998E+01
     -8.709  0.2174E-01  0.8000E+01
     -8.637  0.3584E-02  0.8000E+01
     -8.565  0.4640E-03  0.8000E+01
     -8.493  0.4706E-04  0.8000E+01
     -8.420  0.3733E-05  0.8000E+01
     -8.348  0.2313E-06  0.8000E+01
     -8.276  0.1118E-07  0.8000E+01
     -8.204  0.4215E-09  0.8000E+01
     -8.132  0.1238E-10  0.8000E+01
     -8.060  0.2832E-12  0.8000E+01
     -7.987  0.4723E-14  0.8000E+01
     -7.915  0.0000E+00  0.8000E+01
     -7.843  0.0000E+00  0.8000E+01
     -7.771  0.0000E+00  0.8000E+01
     -7.699  0.0000E+00  0.8000E+01
     -7.627  0.0000E+00  0.8000E+01
     -7.554  0.0000E+00  0.8000E+01
     -7.482  0.0000E+00  0.8000E+01
     -7.410  0.0000E+00  0.8000E+01
     -7.338  0.0000E+00  0.8000E+01
     -7.266  0.0000E+00  0.8000E+01
     -7.194  0.0000E+00  0.8000E+01
     -7.121  0.0000E+00  0.8000E+01
     -7.049  0.0000E+00  0.8000E+01
     -6.977  0.0000E+00  0.8000E+01
     -6.905  0.0000E+00  0.8000E+01
     -6.833  0.0000E+00  0.8000E+01
     -6.761  0.0000E+00  0.8000E+01
     -6.688  0.0000E+00  0.8000E+01
     -6.616  0.0000E+00  0.8000E+01
     -6.544  0.0000E+00  0.8000E+01
     -6.472  0.0000E+00  0.8000E+01
     -6.400  0.0000E+00  0.8000E+01
     -6.328  0.0000E+00  0.8000E+01
     -6.255  0.0000E+00  0.8000E+01
     -6.183  0.0000E+00  0.8000E+01
     -6.111  0.0000E+00  0.8000E+01
     -6.039  0.0000E+00  0.8000E+01
     -5.967  0.0000E+00  0.8000E+01
     -5.895  0.0000E+00  0.8000E+01
     -5.822  0.0000E+00  0.8000E+01
     -5.750  0.0000E+00  0.8000E+01
     -5.678  0.0000E+00  0.8000E+01
     -5.606  0.0000E+00  0.8000E+01
     -5.534  0.0000E+00  0.8000E+01
     -5.462  0.0000E+00  0.8000E+01
     -5.390  0.0000E+00  0.8000E+01
     -5.317  0.0000E+00  0.8000E+01
     -5.245  0.0000E+00  0.8000E+01
     -5.173  0.0000E+00  0.8000E+01
     -5.101  0.0000E+00  0.8000E+01
     -5.029  0.0000E+00  0.8000E+01
     -4.957  0.0000E+00  0.8000E+01
     -4.884  0.0000E+00  0.8000E+01
     -4.812  0.0000E+00  0.8000E+01
     -4.740  0.0000E+00  0.8000E+01
     -4.668  0.0000E+00  0.8000E+01
     -4.596  0.0000E+00  0.8000E+01
     -4.524  0.0000E+00  0.8000E+01
     -4.451  0.0000E+00  0.8000E+01
     -4.379  0.0000E+00  0.8000E+01
     -4.307  0.0000E+00  0.8000E+01
     -4.235  0.0000E+00  0.8000E+01
     -4.163  0.0000E+00  0.8000E+01
     -4.091  0.0000E+00  0.8000E+01
     -4.018  0.0000E+00  0.8000E+01
     -3.946  0.0000E+00  0.8000E+01
     -3.874  0.0000E+00  0.8000E+01
     -3.802  0.0000E+00  0.8000E+01
     -3.730  0.0000E+00  0.8000E+01
     -3.658  0.0000E+00  0.8000E+01
     -3.585  0.0000E+00  0.8000E+01
     -3.513  0.0000E+00  0.8000E+01
     -3.441  0.0000E+00  0.8000E+01
     -3.369  0.0000E+00  0.8000E+01
     -3.297  0.0000E+00  0.8000E+01
     -3.225  0.0000E+00  0.8000E+01
     -3.152  0.0000E+00  0.8000E+01
     -3.080  0.0000E+00  0.8000E+01
     -3.008  0.0000E+00  0.8000E+01
     -2.936  0.0000E+00  0.8000E+01
     -2.864  0.0000E+00  0.8000E+01
     -2.792  0.0000E+00  0.8000E+01
     -2.719  0.0000E+00  0.8000E+01
     -2.647  0.0000E+00  0.8000E+01
     -2.575  0.0000E+00  0.8000E+01
     -2.503  0.0000E+00  0.8000E+01
     -2.431  0.0000E+00  0.8000E+01
     -2.359  0.0000E+00  0.8000E+01
     -2.286  0.0000E+00  0.8000E+01
     -2.214  0.0000E+00  0.8000E+01
     -2.142  0.0000E+00  0.8000E+01
     -2.070  0.0000E+00  0.8000E+01
     -1.998  0.0000E+00  0.8000E+01
     -1.926  0.0000E+00  0.8000E+01
     -1.853  0.0000E+00  0.8000E+01
     -1.781  0.0000E+00  0.8000E+01
     -1.709  0.0000E+00  0.8000E+01
     -1.637  0.0000E+00  0.8000E+01
     -1.565  0.0000E+00  0.8000E+01
     -1.493  0.6653E-14  0.8000E+01
     -1.420  0.3673E-12  0.8000E+01
     -1.348  0.1601E-10  0.8000E+01
     -1.276  0.5426E-09  0.8000E+01
     -1.204  0.1430E-07  0.8000E+01
     -1.132  0.2931E-06  0.8000E+01
     -1.060  0.4674E-05  0.8000E+01
     -0.988  0.5802E-04  0.8000E+01
     -0.915  0.5607E-03  0.8000E+01
     -0.843  0.4220E-02  0.8000E+01
     -0.771  0.2473E-01  0.8002E+01
     -0.699  0.1129E+00  0.8010E+01
     -0.627  0.4017E+00  0.8039E+01
     -0.555  0.1113E+01  0.8119E+01
     -0.482  0.2405E+01  0.8292E+01
     -0.410  0.4049E+01  0.8583E+01
     -0.338  0.5311E+01  0.8965E+01
     -0.266  0.5428E+01  0.9355E+01
     -0.194  0.4323E+01  0.9666E+01
     -0.122  0.2682E+01  0.9859E+01
     -0.049  0.1296E+01  0.9952E+01
      0.023  0.4914E+00  0.9987E+01
      0.095  0.1680E+00  0.9999E+01
      0.167  0.1535E+00  0.1001E+02
      0.239  0.4646E+00  0.1004E+02
      0.311  0.1389E+01  0.1014E+02
      0.384  0.3380E+01  0.1039E+02
      0.456  0.6676E+01  0.1087E+02
      0.528  0.1076E+02  0.1164E+02
      0.600  0.1418E+02  0.1266E+02
      0.672  0.1524E+02  0.1375E+02
      0.744  0.1329E+02  0.1471E+02
      0.817  0.9321E+01  0.1538E+02
      0.889  0.5219E+01  0.1576E+02
      0.961  0.2316E+01  0.1592E+02
      1.033  0.8098E+00  0.1598E+02
      1.105  0.2223E+00  0.1600E+02
      1.177  0.4774E-01  0.1600E+02
      1.250  0.8005E-02  0.1600E+02
      1.322  0.1047E-02  0.1600E+02
      1.394  0.1065E-03  0.1600E+02
      1.466  0.8437E-05  0.1600E+02
      1.538  0.5195E-06  0.1600E+02
      1.610  0.2485E-07  0.1600E+02
      1.683  0.9234E-09  0.1600E+02
      1.755  0.2664E-10  0.1600E+02
      1.827  0.5973E-12  0.1600E+02
      1.899  0.9880E-14  0.1600E+02
      1.971  0.0000E+00  0.1600E+02
      2.043  0.0000E+00  0.1600E+02
      2.116  0.0000E+00  0.1600E+02
      2.188  0.0000E+00  0.1600E+02
      2.260  0.0000E+00  0.1600E+02
      2.332  0.0000E+00  0.1600E+02
      2.404  0.0000E+00  0.1600E+02
      2.476  0.0000E+00  0.1600E+02
      2.549  0.0000E+00  0.1600E+02
      2.621  0.0000E+00  0.1600E+02
      2.693  0.0000E+00  0.1600E+02
      2.71273400    -18.96377807  301     -8.26996155      1.00000000
    -18.964  0.0000E+00  0.0000E+00
    -18.892  0.0000E+00  0.0000E+00
    -18.819  0.0000E+00  0.0000E+00
    -18.747  0.0000E+00  0.0000E+00
    -18.675  0.0000E+00  0.0000E+00
    -18.603  0.0000E+00  0.0000E+00
    -18.530  0.0000E+00  0.0000E+00
    -18.458  0.0000E+00  0.0000E+00
    -18.386  0.0000E+00  0.0000E+00
    -18.313  0.0000E+00  0.0000E+00
    -18.241  0.0000E+00  0.0000E+00
    -18.169  0.0000E+00  0.0000E+00
    -18.097  0.1537E-14  0.1110E-15
    -18.024  0.8655E-13  0.6364E-14
    -17.952  0.3732E-11  0.2760E-12
    -17.880  0.1244E-09  0.9264E-11
    -17.808  0.3205E-08  0.2408E-09
    -17.735  0.6382E-07  0.4852E-08
    -17.663  0.9827E-06  0.7586E-07
    -17.591  0.1170E-04  0.9215E-06
    -17.519  0.1078E-03  0.8713E-05
    -17.446  0.7687E-03  0.6426E-04
    -17.374  0.4242E-02  0.3707E-03
    -17.302  0.1812E-01  0.1680E-02
    -17.230  0.5990E-01  0.6008E-02
    -17.157  0.1534E+00  0.1709E-01
    -17.085  0.3042E+00  0.3907E-01
    -17.013  0.4672E+00  0.7283E-01
    -16.941  0.5558E+00  0.1130E+00
    -16.868  0.5122E+00  0.1500E+00
    -16.796  0.3656E+00  0.1764E+00
    -16.724  0.2021E+00  0.1910E+00
    -16.652  0.8655E-01  0.1973E+00
    -16.579  0.2870E-01  0.1993E+00
    -16.507  0.7368E-02  0.1999E+00
    -16.435  0.1465E-02  0.2000E+00
    -16.363  0.2253E-03  0.2000E+00
    -16.290  0.2682E-04  0.2000E+00
    -16.218  0.2470E-05  0.2000E+00
    -16.146  0.1760E-06  0.2000E+00
    -16.074  0.9693E-08  0.2000E+00
    -16.001  0.4128E-09  0.2000E+00
    -15.929  0.1359E-10  0.2000E+00
    -15.857  0.3459E-12  0.2000E+00
    -15.785  0.6761E-14  0.2000E+00
    -15.712  0.0000E+00  0.2000E+00
    -15.640  0.0000E+00  0.2000E+00
    -15.568  0.0000E+00  0.2000E+00
    -15.496  0.0000E+00  0.2000E+00
    -15.423  0.0000E+00  0.2000E+00
    -15.351  0.0000E+00  0.2000E+00
    -15.279  0.0000E+00  0.2000E+00
    -15.207  0.0000E+00  0.2000E+00
    -15.134  0.0000E+00  0.2000E+00
    -15.062  0.0000E+00  0.2000E+00
    -14.990  0.0000E+00  0.2000E+00
    -14.917  0.0000E+00  0.2000E+00
    -14.845  0.0000E+00  0.2000E+00
    -14.773  0.0000E+00  0.2000E+00
    -14.701  0.0000E+00  0.2000E+00
    -14.628  0.0000E+00  0.2000E+00
    -14.556  0.0000E+00  0.2000E+00
    -14.484  0.0000E+00  0.2000E+00
    -14.412  0.0000E+00  0.2000E+00
    -14.339  0.0000E+00  0.2000E+00
    -14.267  0.0000E+00  0.2000E+00
    -14.195  0.0000E+00  0.2000E+00
    -14.123  0.0000E+00  0.2000E+00
    -14.050  0.0000E+00  0.2000E+00
    -13.978  0.0000E+00  0.2000E+00
    -13.906  0.0000E+00  0.2000E+00
    -13.834  0.0000E+00  0.2000E+00
    -13.761  0.0000E+00  0.2000E+00
    -13.689  0.0000E+00  0.2000E+00
    -13.617  0.0000E+00  0.2000E+00
    -13.545  0.0000E+00  0.2000E+00
    -13.472  0.0000E+00  0.2000E+00
    -13.400  0.0000E+00  0.2000E+00
    -13.328  0.0000E+00  0.2000E+00
    -13.256  0.0000E+00  0.2000E+00
    -13.183  0.0000E+00  0.2000E+00
    -13.111  0.0000E+00  0.2000E+00
    -13.039  0.0000E+00  0.2000E+00
    -12.967  0.0000E+00  0.2000E+00
    -12.894  0.0000E+00  0.2000E+00
    -12.822  0.0000E+00  0.2000E+00
    -12.750  0.0000E+00  0.2000E+00
    -12.678  0.0000E+00  0.2000E+00
    -12.605  0.0000E+00  0.2000E+00
    -12.533  0.0000E+00  0.2000E+00
    -12.461  0.0000E+00  0.2000E+00
    -12.389  0.0000E+00  0.2000E+00
    -12.316  0.0000E+00  0.2000E+00
    -12.244  0.0000E+00  0.2000E+00
    -12.172  0.0000E+00  0.2000E+00
    -12.100  0.0000E+00  0.2000E+00
    -12.027  0.0000E+00  0.2000E+00
    -11.955  0.0000E+00  0.2000E+00
    -11.883  0.0000E+00  0.2000E+00
    -11.811  0.0000E+00  0.2000E+00
    -11.738  0.0000E+00  0.2000E+00
    -11.666  0.0000E+00  0.2000E+00
    -11.594  0.0000E+00  0.2000E+00
    -11.522  0.0000E+00  0.2000E+00
    -11.449  0.0000E+00  0.2000E+00
    -11.377  0.0000E+00  0.2000E+00
    -11.305  0.0000E+00  0.2000E+00
    -11.232  0.0000E+00  0.2000E+00
    -11.160  0.0000E+00  0.2000E+00
    -11.088  0.0000E+00  0.2000E+00
    -11.016  0.0000E+00  0.2000E+00
    -10.943  0.0000E+00  0.2000E+00
    -10.871  0.0000E+00  0.2000E+00
    -10.799  0.0000E+00  0.2000E+00
    -10.727  0.0000E+00  0.2000E+00
    -10.654  0.0000E+00  0.2000E+00
    -10.582  0.0000E+00  0.2000E+00
    -10.510  0.4149E-14  0.2000E+00
    -10.438  0.2155E-12  0.2000E+00
    -10.365  0.8865E-11  0.2000E+00
    -10.293  0.2825E-09  0.2000E+00
    -10.221  0.6977E-08  0.2000E+00
    -10.149  0.1337E-06  0.2000E+00
    -10.076  0.1988E-05  0.2000E+00
    -10.004  0.2298E-04  0.2000E+00
     -9.932  0.2068E-03  0.2000E+00
     -9.860  0.1450E-02  0.2001E+00
     -9.787  0.7948E-02  0.2007E+00
     -9.715  0.3410E-01  0.2032E+00
     -9.643  0.1149E+00  0.2115E+00
     -9.571  0.3054E+00  0.2335E+00
     -9.498  0.6427E+00  0.2800E+00
     -9.426  0.1076E+01  0.3577E+00
     -9.354  0.1440E+01  0.4617E+00
     -9.282  0.1546E+01  0.5735E+00
     -9.209  0.1337E+01  0.6701E+00
     -9.137  0.9306E+00  0.7373E+00
     -9.065  0.5208E+00  0.7749E+00
     -8.993  0.2334E+00  0.7918E+00
     -8.920  0.8336E-01  0.7978E+00
     -8.848  0.2361E-01  0.7995E+00
     -8.776  0.5273E-02  0.7999E+00
     -8.704  0.9249E-03  0.8000E+00
     -8.631  0.1269E-03  0.8000E+00
     -8.559  0.1359E-04  0.8000E+00
     -8.487  0.1132E-05  0.8000E+00
     -8.415  0.7331E-07  0.8000E+00
     -8.342  0.3681E-08  0.8000E+00
     -8.270  0.1433E-09  0.8000E+00
     -8.198  0.4317E-11  0.8000E+00
     -8.126  0.1008E-12  0.8000E+00
     -8.053  0.1844E-14  0.8000E+00
     -7.981  0.0000E+00  0.8000E+00
     -7.909  0.0000E+00  0.8000E+00
     -7.837  0.0000E+00  0.8000E+00
     -7.764  0.0000E+00  0.8000E+00
     -7.692  0.0000E+00  0.8000E+00
     -7.620  0.0000E+00  0.8000E+00
     -7.547  0.0000E+00  0.8000E+00
     -7.475  0.0000E+00  0.8000E+00
     -7.403  0.0000E+00  0.8000E+00
     -7.331  0.0000E+00  0.8000E+00
     -7.258  0.0000E+00  0.8000E+00
     -7.186  0.0000E+00  0.8000E+00
     -7.114  0.0000E+00  0.8000E+00
     -7.042  0.0000E+00  0.8000E+00
     -6.969  0.0000E+00  0.8000E+00
     -6.897  0.0000E+00  0.8000E+00
     -6.825  0.0000E+00  0.8000E+00
     -6.753  0.0000E+00  0.8000E+00
     -6.680  0.0000E+00  0.8000E+00
     -6.608  0.0000E+00  0.8000E+00
     -6.536  0.0000E+00  0.8000E+00
     -6.464  0.0000E+00  0.8000E+00
     -6.391  0.0000E+00  0.8000E+00
     -6.319  0.0000E+00  0.8000E+00
     -6.247  0.0000E+00  0.8000E+00
     -6.175  0.0000E+00  0.8000E+00
     -6.102  0.0000E+00  0.8000E+00
     -6.030  0.0000E+00  0.8000E+00
     -5.958  0.0000E+00  0.8000E+00
     -5.886  0.0000E+00  0.8000E+00
     -5.813  0.0000E+00  0.8000E+00
     -5.741  0.0000E+00  0.8000E+00
     -5.669  0.0000E+00  0.8000E+00
     -5.597  0.0000E+00  0.8000E+00
     -5.524  0.0000E+00  0.8000E+00
     -5.452  0.0000E+00  0.8000E+00
     -5.380  0.0000E+00  0.8000E+00
     -5.308  0.0000E+00  0.8000E+00
     -5.235  0.0000E+00  0.8000E+00
     -5.163  0.0000E+00  0.8000E+00
     -5.091  0.0000E+00  0.8000E+00
     -5.019  0.0000E+00  0.8000E+00
     -4.946  0.0000E+00  0.8000E+00
     -4.874  0.0000E+00  0.8000E+00
     -4.802  0.0000E+00  0.8000E+00
     -4.730  0.0000E+00  0.8000E+00
     -4.657  0.0000E+00  0.8000E+00
     -4.585  0.0000E+00  0.8000E+00
     -4.513  0.0000E+00  0.8000E+00
     -4.441  0.0000E+00  0.8000E+00
     -4.368  0.0000E+00  0.8000E+00
     -4.296  0.0000E+00  0.8000E+00
     -4.224  0.0000E+00  0.8000E+00
     -4.151  0.0000E+00  0.8000E+00
     -4.079  0.0000E+00  0.8000E+00
     -4.007  0.0000E+00  0.8000E+00
     -3.935  0.0000E+00  0.8000E+00
     -3.862  0.0000E+00  0.8000E+00
     -3.790  0.0000E+00  0.8000E+00
     -3.718  0.0000E+00  0.8000E+00
     -3.646  0.0000E+00  0.8000E+00
     -3.573  0.0000E+00  0.8000E+00
     -3.501  0.0000E+00  0.8000E+00
     -3.429  0.0000E+00  0.8000E+00
     -3.357  0.0000E+00  0.8000E+00
     -3.284  0.0000E+00  0.8000E+00
     -3.212  0.0000E+00  0.8000E+00
     -3.140  0.0000E+00  0.8000E+00
     -3.068  0.0000E+00  0.8000E+00
     -2.995  0.0000E+00  0.8000E+00
     -2.923  0.0000E+00  0.8000E+00
     -2.851  0.0000E+00  0.8000E+00
     -2.779  0.0000E+00  0.8000E+00
     -2.706  0.0000E+00  0.8000E+00
     -2.634  0.0000E+00  0.8000E+00
     -2.562  0.0000E+00  0.8000E+00
     -2.490  0.0000E+00  0.8000E+00
     -2.417  0.0000E+00  0.8000E+00
     -2.345  0.0000E+00  0.8000E+00
     -2.273  0.0000E+00  0.8000E+00
     -2.201  0.0000E+00  0.8000E+00
     -2.128  0.0000E+00  0.8000E+00
     -2.056  0.0000E+00  0.8000E+00
     -1.984  0.0000E+00  0.8000E+00
     -1.912  0.0000E+00  0.8000E+00
     -1.839  0.0000E+00  0.8000E+00
     -1.767  0.0000E+00  0.8000E+00
     -1.695  0.0000E+00  0.8000E+00
     -1.623  0.0000E+00  0.8000E+00
     -1.550  0.0000E+00  0.8000E+00
     -1.478  0.1537E-15  0.8000E+00
     -1.406  0.6722E-14  0.8000E+00
     -1.334  0.3437E-12  0.8000E+00
     -1.261  0.1350E-10  0.8000E+00
     -1.189  0.4100E-09  0.8000E+00
     -1.117  0.9624E-08  0.8000E+00
     -1.045  0.1747E-06  0.8000E+00
     -0.972  0.2452E-05  0.8000E+00
     -0.900  0.2662E-04  0.8000E+00
     -0.828  0.2237E-03  0.8000E+00
     -0.756  0.1455E-02  0.8001E+00
     -0.683  0.7323E-02  0.8007E+00
     -0.611  0.2854E-01  0.8027E+00
     -0.539  0.8615E-01  0.8089E+00
     -0.466  0.2014E+00  0.8235E+00
     -0.394  0.3646E+00  0.8498E+00
     -0.322  0.5115E+00  0.8868E+00
     -0.250  0.5558E+00  0.9270E+00
     -0.177  0.4679E+00  0.9608E+00
     -0.105  0.3051E+00  0.9828E+00
     -0.033  0.1542E+00  0.9940E+00
      0.039  0.6080E-01  0.9983E+00
      0.112  0.2117E-01  0.9999E+00
      0.184  0.1788E-01  0.1001E+01
      0.256  0.5099E-01  0.1005E+01
      0.328  0.1476E+00  0.1016E+01
      0.401  0.3479E+00  0.1041E+01
      0.473  0.6679E+00  0.1089E+01
      0.545  0.1055E+01  0.1165E+01
      0.617  0.1377E+01  0.1265E+01
      0.690  0.1486E+01  0.1372E+01
      0.762  0.1314E+01  0.1467E+01
      0.834  0.9401E+00  0.1535E+01
      0.906  0.5385E+00  0.1574E+01
      0.979  0.2446E+00  0.1591E+01
      1.051  0.8749E-01  0.1598E+01
      1.123  0.2452E-01  0.1600E+01
      1.195  0.5368E-02  0.1600E+01
      1.268  0.9159E-03  0.1600E+01
      1.340  0.1216E-03  0.1600E+01
      1.412  0.1255E-04  0.1600E+01
      1.484  0.1006E-05  0.1600E+01
      1.557  0.6264E-07  0.1600E+01
      1.629  0.3024E-08  0.1600E+01
      1.701  0.1132E-09  0.1600E+01
      1.773  0.3285E-11  0.1600E+01
      1.846  0.7375E-13  0.1600E+01
      1.918  0.1306E-14  0.1600E+01
      1.990  0.0000E+00  0.1600E+01
      2.062  0.0000E+00  0.1600E+01
      2.135  0.0000E+00  0.1600E+01
      2.207  0.0000E+00  0.1600E+01
      2.279  0.0000E+00  0.1600E+01
      2.351  0.0000E+00  0.1600E+01
      2.424  0.0000E+00  0.1600E+01
      2.496  0.0000E+00  0.1600E+01
      2.568  0.0000E+00  0.1600E+01
      2.640  0.0000E+00  0.1600E+01
      2.713  0.0000E+00  0.1600E+01
