    5    5   10    1
  0.2066232E+03  0.9990039E-09  0.1019095E-08  0.1015394E-08  0.5000000E-15
  1.000000000000000E-004
  CAR 
 unknown system                          
      8      4      8
 
  0.2500000E+00  0.2500000E+00  0.2500000E+00  0.2500000E+00
    1      -16.963739   1.000000
    2       -9.393143   1.000000
    3       -9.337974   1.000000
    4       -9.255982   1.000000
    5       -0.294038   0.000000
    6        0.536768   0.000000
    7        0.662046   0.000000
    8        0.688549   0.000000
 
 -0.2500000E+00  0.2500000E+00  0.2500000E+00  0.2500000E+00
    1      -16.963754   1.000000
    2       -9.393143   1.000000
    3       -9.337935   1.000000
    4       -9.255770   1.000000
    5       -0.297551   0.000000
    6        0.532702   0.000000
    7        0.666043   0.000000
    8        0.712734   0.000000
 
  0.2500000E+00 -0.2500000E+00  0.2500000E+00  0.2500000E+00
    1      -16.963778   1.000000
    2       -9.393060   1.000000
    3       -9.337918   1.000000
    4       -9.255928   1.000000
    5       -0.298855   0.000000
    6        0.542036   0.000000
    7        0.671795   0.000000
    8        0.706463   0.000000
 
 -0.2500000E+00 -0.2500000E+00  0.2500000E+00  0.2500000E+00
    1      -16.963749   1.000000
    2       -9.393139   1.000000
    3       -9.337857   1.000000
    4       -9.255814   1.000000
    5       -0.303387   0.000000
    6        0.556175   0.000000
    7        0.684357   0.000000
    8        0.712213   0.000000
