       N       E                     dE             d eps       ncg     rms          rms(c)
DAV:   1     0.104132143642E+02    0.10413E+02   -0.20454E+03    96   0.423E+02
DAV:   2    -0.235689470144E+02   -0.33982E+02   -0.33982E+02    64   0.112E+02
DAV:   3    -0.272797847973E+02   -0.37108E+01   -0.37108E+01    72   0.424E+01
DAV:   4    -0.273903208705E+02   -0.11054E+00   -0.11054E+00   128   0.760E+00
DAV:   5    -0.273903549706E+02   -0.34100E-04   -0.34100E-04    96   0.148E-01    0.852E+00
RMM:   6    -0.246218307941E+02    0.27685E+01   -0.50952E+00    64   0.137E+01    0.421E+00
RMM:   7    -0.241524047561E+02    0.46943E+00   -0.11096E+00    64   0.607E+00    0.225E+00
RMM:   8    -0.240080139442E+02    0.14439E+00   -0.16249E-01    64   0.286E+00    0.228E-01
RMM:   9    -0.240024340335E+02    0.55799E-02   -0.10811E-02    64   0.688E-01    0.193E-01
RMM:  10    -0.239960305427E+02    0.64035E-02   -0.24447E-02    64   0.849E-01    0.272E-01
RMM:  11    -0.239969008500E+02   -0.87031E-03   -0.88583E-03    64   0.581E-01    0.935E-02
RMM:  12    -0.240061697246E+02   -0.92689E-02   -0.29748E-03    64   0.334E-01    0.118E-01
RMM:  13    -0.240067721774E+02   -0.60245E-03   -0.10364E-03    64   0.176E-01    0.428E-02
RMM:  14    -0.240096321667E+02   -0.28600E-02   -0.12094E-03    64   0.212E-01    0.283E-02
RMM:  15    -0.240098733530E+02   -0.24119E-03   -0.38220E-05    64   0.383E-02    0.188E-02
RMM:  16    -0.240100847372E+02   -0.21138E-03   -0.12535E-04    64   0.646E-02    0.740E-03
RMM:  17    -0.240101211482E+02   -0.36411E-04   -0.21413E-05    64   0.266E-02    0.321E-03
RMM:  18    -0.240101333736E+02   -0.12225E-04   -0.14664E-06    48   0.771E-03    0.633E-04
RMM:  19    -0.240101372289E+02   -0.38552E-05   -0.12285E-06    48   0.703E-03    0.118E-03
RMM:  20    -0.240101381104E+02   -0.88155E-06   -0.21563E-07    48   0.330E-03
    1 T=     1. E= -.24009824E+02 F= -.24010138E+02 E0= -.24010138E+02  EK= 0.31413E-03 SP= 0.00E+00 SK= 0.00E+00
       N       E                     dE             d eps       ncg     rms          rms(c)
DAV:   1    -0.240125537875E+02   -0.24166E-02   -0.26691E-03    88   0.474E-01    0.251E-02
RMM:   2    -0.240125413151E+02    0.12472E-04   -0.73743E-05    64   0.628E-02    0.128E-02
RMM:   3    -0.240125409929E+02    0.32222E-06   -0.22938E-05    64   0.313E-02    0.522E-03
RMM:   4    -0.240125409911E+02    0.17667E-08   -0.95102E-07    48   0.800E-03
    2 T=     5. E= -.24009867E+02 F= -.24012541E+02 E0= -.24012541E+02  EK= 0.26737E-02 SP= 0.00E+00 SK= 0.00E+00
       N       E                     dE             d eps       ncg     rms          rms(c)
DAV:   1    -0.240166615728E+02   -0.41206E-02   -0.20947E-03    88   0.440E-01    0.646E-03
RMM:   2    -0.240166681662E+02   -0.65934E-05   -0.69629E-05    64   0.680E-02    0.269E-03
RMM:   3    -0.240166687868E+02   -0.62061E-06   -0.28346E-06    52   0.136E-02    0.206E-03
RMM:   4    -0.240166691307E+02   -0.34391E-06   -0.61457E-07    48   0.701E-03
    3 T=    13. E= -.24009941E+02 F= -.24016669E+02 E0= -.24016669E+02  EK= 0.67283E-02 SP= 0.00E+00 SK= 0.00E+00
       N       E                     dE             d eps       ncg     rms          rms(c)
DAV:   1    -0.240213700818E+02   -0.47013E-02   -0.61377E-04    80   0.192E-01    0.117E-02
RMM:   2    -0.240213671039E+02    0.29778E-05   -0.27845E-05    64   0.409E-02    0.549E-03
RMM:   3    -0.240213677555E+02   -0.65155E-06   -0.10528E-05    62   0.200E-02    0.169E-03
RMM:   4    -0.240213681300E+02   -0.37456E-06   -0.38121E-07    48   0.504E-03
    4 T=    22. E= -.24010026E+02 F= -.24021368E+02 E0= -.24021368E+02  EK= 0.11342E-01 SP= 0.00E+00 SK= 0.00E+00
       N       E                     dE             d eps       ncg     rms          rms(c)
DAV:   1    -0.240252903609E+02   -0.39226E-02   -0.83713E-04    72   0.229E-01    0.361E-03
RMM:   2    -0.240252928720E+02   -0.25111E-05   -0.54504E-06    63   0.204E-02    0.173E-03
RMM:   3    -0.240252955131E+02   -0.26411E-05   -0.66542E-07    48   0.650E-03    0.675E-04
RMM:   4    -0.240252973074E+02   -0.17943E-05   -0.12839E-07    48   0.282E-03    0.368E-04
RMM:   5    -0.240253003387E+02   -0.30313E-05   -0.28084E-07    48   0.285E-03    0.335E-04
RMM:   6    -0.240253011996E+02   -0.86086E-06   -0.94455E-08    44   0.185E-03
    5 T=    29. E= -.24010098E+02 F= -.24025301E+02 E0= -.24025301E+02  EK= 0.15203E-01 SP= 0.00E+00 SK= 0.00E+00
       N       E                     dE             d eps       ncg     rms          rms(c)
DAV:   1    -0.240273357544E+02   -0.20354E-02   -0.10556E-03    64   0.249E-01    0.654E-03
RMM:   2    -0.240273373356E+02   -0.15812E-05   -0.69146E-06    64   0.206E-02    0.322E-03
RMM:   3    -0.240273407493E+02   -0.34137E-05   -0.50350E-06    60   0.136E-02    0.149E-03
RMM:   4    -0.240273411030E+02   -0.35371E-06   -0.30513E-07    48   0.413E-03
    6 T=    33. E= -.24010137E+02 F= -.24027341E+02 E0= -.24027341E+02  EK= 0.17204E-01 SP= 0.00E+00 SK= 0.00E+00
       N       E                     dE             d eps       ncg     rms          rms(c)
DAV:   1    -0.240269250118E+02    0.41574E-03   -0.10088E-03    64   0.241E-01    0.119E-03
RMM:   2    -0.240269278267E+02   -0.28149E-05   -0.55565E-06    63   0.207E-02    0.114E-03
RMM:   3    -0.240269290967E+02   -0.12700E-05   -0.18778E-07    48   0.402E-03    0.819E-04
RMM:   4    -0.240269323384E+02   -0.32417E-05   -0.27373E-07    48   0.342E-03    0.258E-04
RMM:   5    -0.240269339554E+02   -0.16171E-05   -0.32035E-09    33   0.152E-03    0.124E-04
RMM:   6    -0.240269361820E+02   -0.22265E-05   -0.21408E-07    44   0.241E-03    0.214E-04
RMM:   7    -0.240269362739E+02   -0.91899E-07   -0.11241E-09    33   0.132E-03
    7 T=    33. E= -.24010132E+02 F= -.24026936E+02 E0= -.24026936E+02  EK= 0.16805E-01 SP= 0.00E+00 SK= 0.00E+00
       N       E                     dE             d eps       ncg     rms          rms(c)
DAV:   1    -0.240242839817E+02    0.26522E-02   -0.82907E-04    64   0.230E-01    0.772E-03
RMM:   2    -0.240242861845E+02   -0.22028E-05   -0.11689E-05    64   0.321E-02    0.334E-03
RMM:   3    -0.240242901109E+02   -0.39264E-05   -0.41464E-06    60   0.128E-02    0.912E-04
RMM:   4    -0.240242916849E+02   -0.15740E-05   -0.17444E-07    48   0.362E-03    0.604E-04
RMM:   5    -0.240242954260E+02   -0.37410E-05   -0.30635E-07    48   0.337E-03    0.690E-04
RMM:   6    -0.240242971155E+02   -0.16896E-05   -0.21113E-07    48   0.243E-03    0.264E-04
RMM:   7    -0.240242972322E+02   -0.11664E-06    0.00000E+00    32   0.129E-03
    8 T=    28. E= -.24010073E+02 F= -.24024297E+02 E0= -.24024297E+02  EK= 0.14224E-01 SP= 0.00E+00 SK= 0.00E+00
       N       E                     dE             d eps       ncg     rms          rms(c)
DAV:   1    -0.240203905925E+02    0.39065E-02   -0.60863E-04    64   0.208E-01    0.282E-03
RMM:   2    -0.240203922649E+02   -0.16724E-05   -0.47130E-06    60   0.230E-02    0.177E-03
RMM:   3    -0.240203938432E+02   -0.15783E-05   -0.61164E-07    48   0.594E-03    0.546E-04
RMM:   4    -0.240203947186E+02   -0.87537E-06   -0.12629E-07    48   0.329E-03
    9 T=    20. E= -.24009983E+02 F= -.24020395E+02 E0= -.24020395E+02  EK= 0.10412E-01 SP= 0.00E+00 SK= 0.00E+00
       N       E                     dE             d eps       ncg     rms          rms(c)
DAV:   1    -0.240166537133E+02    0.37401E-02   -0.30320E-04    64   0.172E-01    0.154E-03
RMM:   2    -0.240166550464E+02   -0.13331E-05   -0.44743E-06    60   0.238E-02    0.116E-03
RMM:   3    -0.240166556761E+02   -0.62973E-06   -0.15811E-07    48   0.372E-03    0.702E-04
RMM:   4    -0.240166566823E+02   -0.10062E-05   -0.10633E-07    48   0.274E-03    0.248E-04
RMM:   5    -0.240166572649E+02   -0.58261E-06   -0.10671E-09    33   0.127E-03
   10 T=    13. E= -.24009897E+02 F= -.24016657E+02 E0= -.24016657E+02  EK= 0.67602E-02 SP= 0.00E+00 SK= 0.00E+00
