 vasp.5.4.4.18Apr17-6-g9f103f2a35 (build Nov 25 2021 15:25:00) complex          
  
 executed on             LinuxIFC date 2022.02.21  10:17:14
 running on   16 total cores
 distrk:  each k-point on   16 cores,    1 groups
 distr:  one band on NCORES_PER_BAND=   4 cores,    4 groups


--------------------------------------------------------------------------------------------------------


 INCAR:
 POTCAR:    PAW_PBE H 15Jun2001                   
 POTCAR:    PAW_PBE C 08Apr2002                   
 POTCAR:    PAW_PBE H 15Jun2001                   
   VRHFIN =H: ultrasoft test                                                    
   LEXCH  = PE                                                                  
   EATOM  =    12.4884 eV,    0.9179 Ry                                         
                                                                                
   TITEL  = PAW_PBE H 15Jun2001                                                 
   LULTRA =        F    use ultrasoft PP ?                                      
   IUNSCR =        0    unscreen: 0-lin 1-nonlin 2-no                           
   RPACOR =    0.000    partial core radius                                     
   POMASS =    1.000; ZVAL   =    1.000    mass and valenz                      
   RCORE  =    1.100    outmost cutoff radius                                   
   RWIGS  =    0.700; RWIGS  =    0.370    wigner-seitz radius (au A)           
   ENMAX  =  250.000; ENMIN  =  200.000 eV                                      
   RCLOC  =    0.701    cutoff for local pot                                    
   LCOR   =        T    correct aug charges                                     
   LPAW   =        T    paw PP                                                  
   EAUG   =  400.000                                                            
   RMAX   =    1.123    core radius for proj-oper                               
   RAUG   =    1.200    factor for augmentation sphere                          
   RDEP   =    1.112    radius for radial grids                                 
   RDEPT  =    0.926    core radius for aug-charge                              
                                                                                
   Atomic configuration                                                         
    2 entries                                                                   
     n  l   j            E        occ.                                          
     1  0  0.50        -6.4927   1.0000                                         
     2  1  0.50        -3.4015   0.0000                                         
   Description                                                                  
     l       E           TYP  RCUT    TYP  RCUT                                 
     0     -6.4927494     23  1.100                                             
     0      6.8029130     23  1.100                                             
     1     -4.0817478     23  1.100                                             
  local pseudopotential read in
  atomic valenz-charges read in
  non local Contribution for L=           0  read in
    real space projection operators read in
  non local Contribution for L=           0  read in
    real space projection operators read in
  non local Contribution for L=           1  read in
    real space projection operators read in
    PAW grid and wavefunctions read in
 
   number of l-projection  operators is LMAX  =           3
   number of lm-projection operators is LMMAX =           5
 
 POTCAR:    PAW_PBE C 08Apr2002                   
   VRHFIN =C: s2p2                                                              
   LEXCH  = PE                                                                  
   EATOM  =   147.1560 eV,   10.8157 Ry                                         
                                                                                
   TITEL  = PAW_PBE C 08Apr2002                                                 
   LULTRA =        F    use ultrasoft PP ?                                      
   IUNSCR =        1    unscreen: 0-lin 1-nonlin 2-no                           
   RPACOR =    1.200    partial core radius                                     
   POMASS =   12.011; ZVAL   =    4.000    mass and valenz                      
   RCORE  =    1.500    outmost cutoff radius                                   
   RWIGS  =    1.630; RWIGS  =    0.863    wigner-seitz radius (au A)           
   ENMAX  =  400.000; ENMIN  =  300.000 eV                                      
   ICORE  =        2    local potential                                         
   LCOR   =        T    correct aug charges                                     
   LPAW   =        T    paw PP                                                  
   EAUG   =  644.873                                                            
   DEXC   =    0.000                                                            
   RMAX   =    1.529    core radius for proj-oper                               
   RAUG   =    1.300    factor for augmentation sphere                          
   RDEP   =    1.501    radius for radial grids                                 
   RDEPT  =    1.300    core radius for aug-charge                              
                                                                                
   Atomic configuration                                                         
    4 entries                                                                   
     n  l   j            E        occ.                                          
     1  0  0.50      -273.3789   2.0000                                         
     2  0  0.50       -13.7508   2.0000                                         
     2  1  0.50        -5.2854   2.0000                                         
     3  2  1.50        -5.4423   0.0000                                         
   Description                                                                  
     l       E           TYP  RCUT    TYP  RCUT                                 
     0    -13.7508458     23  1.200                                             
     0     -8.2022199     23  1.200                                             
     1     -5.2854383     23  1.500                                             
     1     34.0145650     23  1.500                                             
     2     -5.4423304      7  1.500                                             
  local pseudopotential read in
  partial core-charges read in
  partial kinetic energy density read in
  atomic valenz-charges read in
  non local Contribution for L=           0  read in
    real space projection operators read in
  non local Contribution for L=           0  read in
    real space projection operators read in
  non local Contribution for L=           1  read in
    real space projection operators read in
  non local Contribution for L=           1  read in
    real space projection operators read in
    PAW grid and wavefunctions read in
 
   number of l-projection  operators is LMAX  =           4
   number of lm-projection operators is LMMAX =           8
 
  PAW_PBE H 15Jun2001                   :
 energy of atom  1       EATOM=  -12.4884
 kinetic energy error for atom=    0.0098 (will be added to EATOM!!)
  PAW_PBE C 08Apr2002                   :
 energy of atom  2       EATOM= -147.1560
 kinetic energy error for atom=    0.0288 (will be added to EATOM!!)
 
 
 POSCAR:  H  C                                   
  positions in cartesian coordinates
  No initial velocities read in
 exchange correlation table for  LEXCH =        8
   RHO(1)=    0.500       N(1)  =     2000
   RHO(2)=  100.500       N(2)  =     4000

 VTST: version 3.2, (02/03/18)

 CHAIN: initializing optimizer
 
 OPT: Using VASP Dynamics algorithm
 CHAIN: Read ICHAIN            0
 
 POSCAR:  H  C                                   
  positions in cartesian coordinates
  No initial velocities read in
 


--------------------------------------------------------------------------------------------------------


 ion  position               nearest neighbor table
   1  0.538  0.407  0.361-   5 1.11
   2  0.395  0.481  0.439-   5 1.09
   3  0.552  0.566  0.443-   5 1.12
   4  0.528  0.416  0.538-   5 1.12
   5  0.503  0.467  0.445-   2 1.09   1 1.11   4 1.12   3 1.12
 

IMPORTANT INFORMATION: All symmetrisations will be switched off!
NOSYMM: (Re-)initialisation of all symmetry stuff for point group C_1.

 
 

Automatic generation of k-mesh.
 generate k-points for:    2    2    2
Space group operators:
 irot       det(A)        alpha          n_x          n_y          n_z        tau_x        tau_y        tau_z
    1     1.000000     0.000001     1.000000     0.000000     0.000000     0.000000     0.000000     0.000000
 
 Subroutine IBZKPT returns following result:
 ===========================================
 
 Found      4 irreducible k-points:
 
 Following reciprocal coordinates:
            Coordinates               Weight
  0.250000  0.250000  0.250000      2.000000
 -0.250000  0.250000  0.250000      2.000000
  0.250000 -0.250000  0.250000      2.000000
 -0.250000 -0.250000  0.250000      2.000000
 
 Following cartesian coordinates:
            Coordinates               Weight
  0.025025  0.024496  0.025851      2.000000
 -0.025025  0.024567  0.024790      2.000000
  0.025025 -0.024567  0.024482      2.000000
 -0.025025 -0.024496  0.023421      2.000000
 


--------------------------------------------------------------------------------------------------------




 Dimension of arrays:
   k-points           NKPTS =      4   k-points in BZ     NKDIM =      4   number of bands    NBANDS=      8
   number of dos      NEDOS =    301   number of ions     NIONS =      5
   non local maximal  LDIM  =      4   non local SUM 2l+1 LMDIM =      8
   total plane-waves  NPLWV = 343000
   max r-space proj   IRMAX =      1   max aug-charges    IRDMAX=   4117
   dimension x,y,z NGX =    70 NGY =   70 NGZ =   70
   dimension x,y,z NGXF=   140 NGYF=  140 NGZF=  140
   support grid    NGXF=   140 NGYF=  140 NGZF=  140
   ions per type =               4   1
   NGX,Y,Z   is equivalent  to a cutoff of  11.65, 11.42, 11.46 a.u.
   NGXF,Y,Z  is equivalent  to a cutoff of  23.30, 22.84, 22.92 a.u.

 SYSTEM =  unknown system                          
 POSCAR =   H  C                                   

 Startparameter for this run:
   NWRITE =      2    write-flag & timer
   PREC   = a         normal or accurate (medium, high low for compatibility)
   ISTART =      0    job   : 0-new  1-cont  2-samecut
   ICHARG =      2    charge: 1-file 2-atom 10-const
   ISPIN  =      1    spin polarized calculation?
   LNONCOLLINEAR =      F non collinear calculations
   LSORBIT =      F    spin-orbit coupling
   INIWAV =      1    electr: 0-lowe 1-rand  2-diag
   LASPH  =      F    aspherical Exc in radial PAW
   METAGGA=      F    non-selfconsistent MetaGGA calc.

 Electronic Relaxation 1
   ENCUT  =  400.0 eV  29.40 Ry    5.42 a.u.  16.29 16.62 16.56*2*pi/ulx,y,z
   ENINI  =  400.0     initial cutoff
   ENAUG  =  644.9 eV  augmentation charge cutoff
   NELM   =    120;   NELMIN=  4; NELMDL= -5     # of ELM steps 
   EDIFF  = 0.1E-05   stopping-criterion for ELM
   LREAL  =      F    real-space projection
   NLSPLINE    = F    spline interpolate recip. space projectors
   LCOMPAT=      F    compatible to vasp.4.4
   GGA_COMPAT  = T    GGA compatible to vasp.4.4-vasp.4.6
   LMAXPAW     = -100 max onsite density
   LMAXMIX     =    2 max onsite mixed and CHGCAR
   VOSKOWN=      0    Vosko Wilk Nusair interpolation
   ROPT   =    0.00000   0.00000
 Ionic relaxation
   EDIFFG = 0.1E-04   stopping-criterion for IOM
   NSW    =     10    number of steps for IOM
   NBLOCK =      1;   KBLOCK =     10    inner block; outer block 
   IBRION =      0    ionic relax: 0-MD 1-quasi-New 2-CG
   NFREE  =      0    steps in history (QN), initial steepest desc. (CG)
   ISIF   =      2    stress and relaxation
   IWAVPR =     12    prediction:  0-non 1-charg 2-wave 3-comb
   ISYM   =      0    0-nonsym 1-usesym 2-fastsym
   LCORR  =      T    Harris-Foulkes like correction to forces

   POTIM  = 0.5000    time-step for ionic-motion
   TEIN   =    0.0    initial temperature
   TEBEG  =    0.0;   TEEND  =   0.0 temperature during run
   SMASS  =  -3.00    Nose mass-parameter (am)
   estimated Nose-frequenzy (Omega)   =  0.10E-29 period in steps =****** mass=  -0.228E-26a.u.
   SCALEE = 1.0000    scale energy and forces
   NPACO  =    256;   APACO  = 16.0  distance and # of slots for P.C.
   PSTRESS=    0.0 pullay stress

  Mass of Ions in am
   POMASS =   1.00 12.01
  Ionic Valenz
   ZVAL   =   1.00  4.00
  Atomic Wigner-Seitz radii
   RWIGS  =  -1.00 -1.00
  virtual crystal weights 
   VCA    =   1.00  1.00
   NELECT =       8.0000    total number of electrons
   NUPDOWN=      -1.0000    fix difference up-down

 DOS related values:
   EMIN   =  10.00;   EMAX   =-10.00  energy-range for DOS
   EFERMI =   0.00
   ISMEAR =     0;   SIGMA  =   0.20  broadening in eV -4-tet -1-fermi 0-gaus

 Electronic relaxation 2 (details)
   IALGO  =     68    algorithm
   LDIAG  =      T    sub-space diagonalisation (order eigenvalues)
   LSUBROT=      F    optimize rotation matrix (better conditioning)
   TURBO    =      0    0=normal 1=particle mesh
   IRESTART =      0    0=no restart 2=restart with 2 vectors
   NREBOOT  =      0    no. of reboots
   NMIN     =      0    reboot dimension
   EREF     =   0.00    reference energy to select bands
   IMIX   =      4    mixing-type and parameters
     AMIX     =   0.40;   BMIX     =  1.00
     AMIX_MAG =   1.60;   BMIX_MAG =  1.00
     AMIN     =   0.10
     WC   =   100.;   INIMIX=   1;  MIXPRE=   1;  MAXMIX= -45

 Intra band minimization:
   WEIMIN = 0.0010     energy-eigenvalue tresh-hold
   EBREAK =  0.31E-07  absolut break condition
   DEPER  =   0.30     relativ break condition  

   TIME   =   0.40     timestep for ELM

  volume/ion in A,a.u.               =     206.62      1394.36
  Fermi-wavevector in a.u.,A,eV,Ry     =   0.323883  0.612051  1.427256  0.104900
  Thomas-Fermi vector in A             =   1.213523
 
 Write flags
   LWAVE        =      F    write WAVECAR
   LDOWNSAMPLE  =      F    k-point downsampling of WAVECAR
   LCHARG       =      F    write CHGCAR
   LVTOT        =      F    write LOCPOT, total local potential
   LVHAR        =      F    write LOCPOT, Hartree potential only
   LELF         =      F    write electronic localiz. function (ELF)
   LORBIT       =      0    0 simple, 1 ext, 2 COOP (PROOUT), +10 PAW based schemes


 Dipole corrections
   LMONO  =      F    monopole corrections only (constant potential shift)
   LDIPOL =      F    correct potential (dipole corrections)
   IDIPOL =      0    1-x, 2-y, 3-z, 4-all directions 
   EPSILON=  1.0000000 bulk dielectric constant

 Exchange correlation treatment:
   GGA     =    --    GGA type
   LEXCH   =     8    internal setting for exchange type
   VOSKOWN=      0    Vosko Wilk Nusair interpolation
   LHFCALC =     F    Hartree Fock is set to
   LHFONE  =     F    Hartree Fock one center treatment
   AEXX    =    0.0000 exact exchange contribution

 Linear response parameters
   LEPSILON=     F    determine dielectric tensor
   LRPA    =     F    only Hartree local field effects (RPA)
   LNABLA  =     F    use nabla operator in PAW spheres
   LVEL    =     F    velocity operator in full k-point grid
   LINTERFAST=   F  fast interpolation
   KINTER  =     0    interpolate to denser k-point grid
   CSHIFT  =0.1000    complex shift for real part using Kramers Kronig
   OMEGAMAX=  -1.0    maximum frequency
   DEG_THRESHOLD= 0.2000000E-02 threshold for treating states as degnerate
   RTIME   =   -0.100 relaxation time in fs
  (WPLASMAI=    0.000 imaginary part of plasma frequency in eV, 0.658/RTIME)
   DFIELD  = 0.0000000 0.0000000 0.0000000 field for delta impulse in time
 
 Orbital magnetization related:
   ORBITALMAG=     F  switch on orbital magnetization
   LCHIMAG   =     F  perturbation theory with respect to B field
   DQ        =  0.001000  dq finite difference perturbation B field
   LLRAUG    =     F  two centre corrections for induced B field



--------------------------------------------------------------------------------------------------------


 molecular dynamics for ions
   using a microcanonical ensemble
 charge density and potential will be updated during run
 non-spin polarized calculation
 RMM-DIIS sequential band-by-band and
  variant of blocked Davidson during initial phase
 perform sub-space diagonalisation
    before iterative eigenvector-optimisation
 modified Broyden-mixing scheme, WC =      100.0
 initial mixing is a Kerker type mixing with AMIX =  0.4000 and BMIX =      1.0000
 Hartree-type preconditioning will be used
 using additional bands            4
 reciprocal scheme for non local part
 use partial core corrections
 calculate Harris-corrections to forces 
   (improved forces if not selfconsistent)
 use gradient corrections 
 use of overlap-Matrix (Vanderbilt PP)
 Gauss-broadening in eV      SIGMA  =   0.20


--------------------------------------------------------------------------------------------------------


  energy-cutoff  :      400.00
  volume of cell :     1033.12
      direct lattice vectors                 reciprocal lattice vectors
     9.990038508  0.000000000  0.000000000     0.100099714 -0.000141798  0.002122514
     0.014436103 10.190939320  0.000000000     0.000000000  0.098126382  0.002738712
    -0.215573045 -0.283222782 10.147699962     0.000000000  0.000000000  0.098544498

  length of vectors
     9.990038508 10.190949545 10.153940191     0.100122315  0.098164593  0.098544498


 
 k-points in units of 2pi/SCALE and weight: read from INCAR                         
   0.02502493  0.02449615  0.02585143       0.250
  -0.02502493  0.02456704  0.02479017       0.250
   0.02502493 -0.02456704  0.02448208       0.250
  -0.02502493 -0.02449615  0.02342082       0.250
 
 k-points in reciprocal lattice and weights: read from INCAR                         
   0.25000000  0.25000000  0.25000000       0.250
  -0.25000000  0.25000000  0.25000000       0.250
   0.25000000 -0.25000000  0.25000000       0.250
  -0.25000000 -0.25000000  0.25000000       0.250
 
 position of ions in fractional coordinates (direct lattice) 
   0.53847274  0.40663953  0.36081714
   0.39515444  0.48067775  0.43863455
   0.55237320  0.56598821  0.44344623
   0.52782739  0.41618355  0.53842773
   0.50341592  0.46743610  0.44516418
 
 position of ions in cartesian coordinates  (Angst):
   5.30745123  4.04184711  3.66146406
   3.85998945  4.77432649  4.45113185
   5.43080519  5.64235745  4.49995933
   5.16295351  4.08880635  5.46380302
   4.93992698  4.63753227  4.51739250
 


--------------------------------------------------------------------------------------------------------


 k-point  1 :   0.2500 0.2500 0.2500  plane waves:   18777
 k-point  2 :  -0.2500 0.2500 0.2500  plane waves:   18762
 k-point  3 :   0.2500-0.2500 0.2500  plane waves:   18766
 k-point  4 :  -0.2500-0.2500 0.2500  plane waves:   18757

 maximum and minimum number of plane-waves per node :      4715     4660

 maximum number of plane-waves:     18777
 maximum index in each direction: 
   IXMAX=   16   IYMAX=   16   IZMAX=   16
   IXMIN=  -16   IYMIN=  -16   IZMIN=  -16


 parallel 3D FFT for wavefunctions:
    minimum data exchange during FFTs selected (reduces bandwidth)
 parallel 3D FFT for charge:
    minimum data exchange during FFTs selected (reduces bandwidth)


 total amount of memory used by VASP MPI-rank0    55507. kBytes
=======================================================================

   base      :      30000. kBytes
   nonl-proj :       2791. kBytes
   fftplans  :       8578. kBytes
   grid      :      13527. kBytes
   one-center:          6. kBytes
   wavefun   :        605. kBytes
 
     INWAV:  cpu time    0.0000: real time    0.0001
 Broyden mixing: mesh for mixing (old mesh)
   NGX = 33   NGY = 33   NGZ = 33
  (NGX  =140   NGY  =140   NGZ  =140)
  gives a total of  35937 points

 initial charge density was supplied:
 charge density of overlapping atoms calculated
 number of electron       8.0000000 magnetization 
 keeping initial charge density in first step


--------------------------------------------------------------------------------------------------------


 Maximum index for augmentation-charges          180 (set IRDMAX)


--------------------------------------------------------------------------------------------------------


 First call to EWALD:  gamma=   0.175
 Maximum number of real-space cells 3x 3x 3
 Maximum number of reciprocal cells 3x 3x 3

    FEWALD:  cpu time    0.0036: real time    0.0037


--------------------------------------- Iteration      1(   1)  ---------------------------------------


    POTLOK:  cpu time    0.1860: real time    0.2147
    SETDIJ:  cpu time    0.0065: real time    0.0074
     EDDAV:  cpu time    0.2250: real time    0.2612
       DOS:  cpu time    0.0014: real time    0.0015
    --------------------------------------------
      LOOP:  cpu time    0.4189: real time    0.4849

 eigenvalue-minimisations  :    96
 total energy-change (2. order) : 0.1041321E+02  (-0.2045396E+03)
 number of electron       8.0000000 magnetization 
 augmentation part        8.0000000 magnetization 

 Free energy of the ion-electron system (eV)
  ---------------------------------------------------
  alpha Z        PSCENC =         0.23448562
  Ewald energy   TEWEN  =       127.58931261
  -Hartree energ DENC   =      -244.00098156
  -exchange      EXHF   =         0.00000000
  -V(xc)+E(xc)   XCENC  =        21.94945661
  PAW double counting   =       117.05815612     -117.66307307
  entropy T*S    EENTRO =        -0.00000000
  eigenvalues    EBANDS =       -91.79589649
  atomic energy  EATOM  =       197.04175453
  Solvation  Ediel_sol  =         0.00000000
  ---------------------------------------------------
  free energy    TOTEN  =        10.41321436 eV

  energy without entropy =       10.41321436  energy(sigma->0) =       10.41321436


--------------------------------------------------------------------------------------------------------




--------------------------------------- Iteration      1(   2)  ---------------------------------------


     EDDAV:  cpu time    0.1652: real time    0.1665
       DOS:  cpu time    0.0002: real time    0.0002
    --------------------------------------------
      LOOP:  cpu time    0.1654: real time    0.1667

 eigenvalue-minimisations  :    64
 total energy-change (2. order) :-0.3398216E+02  (-0.3398216E+02)
 number of electron       8.0000000 magnetization 
 augmentation part        8.0000000 magnetization 

 Free energy of the ion-electron system (eV)
  ---------------------------------------------------
  alpha Z        PSCENC =         0.23448562
  Ewald energy   TEWEN  =       127.58931261
  -Hartree energ DENC   =      -244.00098156
  -exchange      EXHF   =         0.00000000
  -V(xc)+E(xc)   XCENC  =        21.94945661
  PAW double counting   =       117.05815612     -117.66307307
  entropy T*S    EENTRO =        -0.00000000
  eigenvalues    EBANDS =      -125.77805787
  atomic energy  EATOM  =       197.04175453
  Solvation  Ediel_sol  =         0.00000000
  ---------------------------------------------------
  free energy    TOTEN  =       -23.56894701 eV

  energy without entropy =      -23.56894701  energy(sigma->0) =      -23.56894701


--------------------------------------------------------------------------------------------------------




--------------------------------------- Iteration      1(   3)  ---------------------------------------


     EDDAV:  cpu time    0.1769: real time    0.1778
       DOS:  cpu time    0.0002: real time    0.0002
    --------------------------------------------
      LOOP:  cpu time    0.1771: real time    0.1780

 eigenvalue-minimisations  :    72
 total energy-change (2. order) :-0.3710838E+01  (-0.3710838E+01)
 number of electron       8.0000000 magnetization 
 augmentation part        8.0000000 magnetization 

 Free energy of the ion-electron system (eV)
  ---------------------------------------------------
  alpha Z        PSCENC =         0.23448562
  Ewald energy   TEWEN  =       127.58931261
  -Hartree energ DENC   =      -244.00098156
  -exchange      EXHF   =         0.00000000
  -V(xc)+E(xc)   XCENC  =        21.94945661
  PAW double counting   =       117.05815612     -117.66307307
  entropy T*S    EENTRO =        -0.00000000
  eigenvalues    EBANDS =      -129.48889566
  atomic energy  EATOM  =       197.04175453
  Solvation  Ediel_sol  =         0.00000000
  ---------------------------------------------------
  free energy    TOTEN  =       -27.27978480 eV

  energy without entropy =      -27.27978480  energy(sigma->0) =      -27.27978480


--------------------------------------------------------------------------------------------------------




--------------------------------------- Iteration      1(   4)  ---------------------------------------


     EDDAV:  cpu time    0.2744: real time    0.2768
       DOS:  cpu time    0.0003: real time    0.0003
    --------------------------------------------
      LOOP:  cpu time    0.2747: real time    0.2770

 eigenvalue-minimisations  :   128
 total energy-change (2. order) :-0.1105361E+00  (-0.1105361E+00)
 number of electron       8.0000000 magnetization 
 augmentation part        8.0000000 magnetization 

 Free energy of the ion-electron system (eV)
  ---------------------------------------------------
  alpha Z        PSCENC =         0.23448562
  Ewald energy   TEWEN  =       127.58931261
  -Hartree energ DENC   =      -244.00098156
  -exchange      EXHF   =         0.00000000
  -V(xc)+E(xc)   XCENC  =        21.94945661
  PAW double counting   =       117.05815612     -117.66307307
  entropy T*S    EENTRO =        -0.00000000
  eigenvalues    EBANDS =      -129.59943173
  atomic energy  EATOM  =       197.04175453
  Solvation  Ediel_sol  =         0.00000000
  ---------------------------------------------------
  free energy    TOTEN  =       -27.39032087 eV

  energy without entropy =      -27.39032087  energy(sigma->0) =      -27.39032087


--------------------------------------------------------------------------------------------------------




--------------------------------------- Iteration      1(   5)  ---------------------------------------


     EDDAV:  cpu time    0.2164: real time    0.2180
       DOS:  cpu time    0.0003: real time    0.0003
    CHARGE:  cpu time    0.0249: real time    0.0250
    MIXING:  cpu time    0.0047: real time    0.0047
    --------------------------------------------
      LOOP:  cpu time    0.2465: real time    0.2482

 eigenvalue-minimisations  :    96
 total energy-change (2. order) :-0.3410003E-04  (-0.3410007E-04)
 number of electron       8.0000000 magnetization 
 augmentation part        0.2213189 magnetization 

 Broyden mixing:
  rms(total) = 0.85217E+00    rms(broyden)= 0.85196E+00
  rms(prec ) = 0.12068E+01
  weight for this iteration     100.00

 Free energy of the ion-electron system (eV)
  ---------------------------------------------------
  alpha Z        PSCENC =         0.23448562
  Ewald energy   TEWEN  =       127.58931261
  -Hartree energ DENC   =      -244.00098156
  -exchange      EXHF   =         0.00000000
  -V(xc)+E(xc)   XCENC  =        21.94945661
  PAW double counting   =       117.05815612     -117.66307307
  entropy T*S    EENTRO =        -0.00000000
  eigenvalues    EBANDS =      -129.59946583
  atomic energy  EATOM  =       197.04175453
  Solvation  Ediel_sol  =         0.00000000
  ---------------------------------------------------
  free energy    TOTEN  =       -27.39035497 eV

  energy without entropy =      -27.39035497  energy(sigma->0) =      -27.39035497


--------------------------------------------------------------------------------------------------------




--------------------------------------- Iteration      1(   6)  ---------------------------------------


    POTLOK:  cpu time    0.1802: real time    0.1813
    SETDIJ:  cpu time    0.0019: real time    0.0019
    EDDIAG:  cpu time    0.0494: real time    0.0648
  RMM-DIIS:  cpu time    0.1778: real time    0.1789
    ORTHCH:  cpu time    0.0017: real time    0.0017
       DOS:  cpu time    0.0002: real time    0.0002
    CHARGE:  cpu time    0.0231: real time    0.0231
    MIXING:  cpu time    0.0052: real time    0.0071
    --------------------------------------------
      LOOP:  cpu time    0.4395: real time    0.4591

 eigenvalue-minimisations  :    64
 total energy-change (2. order) : 0.2768524E+01  (-0.5095232E+00)
 number of electron       7.9999999 magnetization 
 augmentation part        0.1950948 magnetization 

 Broyden mixing:
  rms(total) = 0.42101E+00    rms(broyden)= 0.42092E+00
  rms(prec ) = 0.54511E+00
  weight for this iteration     100.00

 eigenvalues of (default mixing * dielectric matrix)
  average eigenvalue GAMMA=   1.2971
  1.2971

 Free energy of the ion-electron system (eV)
  ---------------------------------------------------
  alpha Z        PSCENC =         0.23448562
  Ewald energy   TEWEN  =       127.58931261
  -Hartree energ DENC   =      -263.29963215
  -exchange      EXHF   =         0.00000000
  -V(xc)+E(xc)   XCENC  =        23.12115379
  PAW double counting   =       234.78296218     -235.55679343
  entropy T*S    EENTRO =        -0.00000000
  eigenvalues    EBANDS =      -108.53507395
  atomic energy  EATOM  =       197.04175453
  Solvation  Ediel_sol  =         0.00000000
  ---------------------------------------------------
  free energy    TOTEN  =       -24.62183079 eV

  energy without entropy =      -24.62183079  energy(sigma->0) =      -24.62183079


--------------------------------------------------------------------------------------------------------




--------------------------------------- Iteration      1(   7)  ---------------------------------------


    POTLOK:  cpu time    0.1649: real time    0.1704
    SETDIJ:  cpu time    0.0019: real time    0.0019
    EDDIAG:  cpu time    0.0420: real time    0.0434
  RMM-DIIS:  cpu time    0.1700: real time    0.1762
    ORTHCH:  cpu time    0.0015: real time    0.0015
       DOS:  cpu time    0.0002: real time    0.0002
    CHARGE:  cpu time    0.0205: real time    0.0214
    MIXING:  cpu time    0.0049: real time    0.0053
    --------------------------------------------
      LOOP:  cpu time    0.4058: real time    0.4203

 eigenvalue-minimisations  :    64
 total energy-change (2. order) : 0.4694260E+00  (-0.1109593E+00)
 number of electron       7.9999999 magnetization 
 augmentation part        0.1850467 magnetization 

 Broyden mixing:
  rms(total) = 0.22479E+00    rms(broyden)= 0.22474E+00
  rms(prec ) = 0.27212E+00
  weight for this iteration     100.00

 eigenvalues of (default mixing * dielectric matrix)
  average eigenvalue GAMMA=   1.8391
  1.4439  2.2344

 Free energy of the ion-electron system (eV)
  ---------------------------------------------------
  alpha Z        PSCENC =         0.23448562
  Ewald energy   TEWEN  =       127.58931261
  -Hartree energ DENC   =      -274.55458927
  -exchange      EXHF   =         0.00000000
  -V(xc)+E(xc)   XCENC  =        23.95176139
  PAW double counting   =       355.22689744     -356.03668097
  entropy T*S    EENTRO =        -0.00000000
  eigenvalues    EBANDS =       -97.60534610
  atomic energy  EATOM  =       197.04175453
  Solvation  Ediel_sol  =         0.00000000
  ---------------------------------------------------
  free energy    TOTEN  =       -24.15240476 eV

  energy without entropy =      -24.15240476  energy(sigma->0) =      -24.15240476


--------------------------------------------------------------------------------------------------------




--------------------------------------- Iteration      1(   8)  ---------------------------------------


    POTLOK:  cpu time    0.1584: real time    0.1638
    SETDIJ:  cpu time    0.0019: real time    0.0019
    EDDIAG:  cpu time    0.0420: real time    0.0435
  RMM-DIIS:  cpu time    0.1714: real time    0.1774
    ORTHCH:  cpu time    0.0015: real time    0.0015
       DOS:  cpu time    0.0002: real time    0.0002
    CHARGE:  cpu time    0.0200: real time    0.0210
    MIXING:  cpu time    0.0050: real time    0.0052
    --------------------------------------------
      LOOP:  cpu time    0.4004: real time    0.4145

 eigenvalue-minimisations  :    64
 total energy-change (2. order) : 0.1443908E+00  (-0.1624943E-01)
 number of electron       7.9999999 magnetization 
 augmentation part        0.1836949 magnetization 

 Broyden mixing:
  rms(total) = 0.22811E-01    rms(broyden)= 0.22788E-01
  rms(prec ) = 0.52231E-01
  weight for this iteration     100.00

 eigenvalues of (default mixing * dielectric matrix)
  average eigenvalue GAMMA=   1.5416
  2.2481  0.9825  1.3943

 Free energy of the ion-electron system (eV)
  ---------------------------------------------------
  alpha Z        PSCENC =         0.23448562
  Ewald energy   TEWEN  =       127.58931261
  -Hartree energ DENC   =      -279.94569205
  -exchange      EXHF   =         0.00000000
  -V(xc)+E(xc)   XCENC  =        24.48643317
  PAW double counting   =       459.74237691     -460.52072719
  entropy T*S    EENTRO =        -0.00000000
  eigenvalues    EBANDS =       -92.63595754
  atomic energy  EATOM  =       197.04175453
  Solvation  Ediel_sol  =         0.00000000
  ---------------------------------------------------
  free energy    TOTEN  =       -24.00801394 eV

  energy without entropy =      -24.00801394  energy(sigma->0) =      -24.00801394


--------------------------------------------------------------------------------------------------------




--------------------------------------- Iteration      1(   9)  ---------------------------------------


    POTLOK:  cpu time    0.1587: real time    0.1638
    SETDIJ:  cpu time    0.0020: real time    0.0021
    EDDIAG:  cpu time    0.0412: real time    0.0428
  RMM-DIIS:  cpu time    0.1700: real time    0.1775
    ORTHCH:  cpu time    0.0015: real time    0.0017
       DOS:  cpu time    0.0002: real time    0.0002
    CHARGE:  cpu time    0.0198: real time    0.0206
    MIXING:  cpu time    0.0054: real time    0.0087
    --------------------------------------------
      LOOP:  cpu time    0.3988: real time    0.4173

 eigenvalue-minimisations  :    64
 total energy-change (2. order) : 0.5579911E-02  (-0.1081086E-02)
 number of electron       7.9999999 magnetization 
 augmentation part        0.1831450 magnetization 

 Broyden mixing:
  rms(total) = 0.19296E-01    rms(broyden)= 0.19292E-01
  rms(prec ) = 0.39920E-01
  weight for this iteration     100.00

 eigenvalues of (default mixing * dielectric matrix)
  average eigenvalue GAMMA=   2.0844
  1.0032  1.3622  2.9861  2.9861

 Free energy of the ion-electron system (eV)
  ---------------------------------------------------
  alpha Z        PSCENC =         0.23448562
  Ewald energy   TEWEN  =       127.58931261
  -Hartree energ DENC   =      -281.18005672
  -exchange      EXHF   =         0.00000000
  -V(xc)+E(xc)   XCENC  =        24.55371789
  PAW double counting   =       462.45990305     -463.24099742
  entropy T*S    EENTRO =        -0.00000000
  eigenvalues    EBANDS =       -91.46055361
  atomic energy  EATOM  =       197.04175453
  Solvation  Ediel_sol  =         0.00000000
  ---------------------------------------------------
  free energy    TOTEN  =       -24.00243403 eV

  energy without entropy =      -24.00243403  energy(sigma->0) =      -24.00243403


--------------------------------------------------------------------------------------------------------




--------------------------------------- Iteration      1(  10)  ---------------------------------------


    POTLOK:  cpu time    0.1528: real time    0.1613
    SETDIJ:  cpu time    0.0019: real time    0.0019
    EDDIAG:  cpu time    0.0407: real time    0.0422
  RMM-DIIS:  cpu time    0.1722: real time    0.1787
    ORTHCH:  cpu time    0.0014: real time    0.0014
       DOS:  cpu time    0.0002: real time    0.0002
    CHARGE:  cpu time    0.0205: real time    0.0211
    MIXING:  cpu time    0.0052: real time    0.0054
    --------------------------------------------
      LOOP:  cpu time    0.3949: real time    0.4122

 eigenvalue-minimisations  :    64
 total energy-change (2. order) : 0.6403491E-02  (-0.2444683E-02)
 number of electron       7.9999999 magnetization 
 augmentation part        0.1821155 magnetization 

 Broyden mixing:
  rms(total) = 0.27228E-01    rms(broyden)= 0.27226E-01
  rms(prec ) = 0.34898E-01
  weight for this iteration     100.00

 eigenvalues of (default mixing * dielectric matrix)
  average eigenvalue GAMMA=   1.7871
  3.0724  2.4056  1.2369  1.2369  0.9838

 Free energy of the ion-electron system (eV)
  ---------------------------------------------------
  alpha Z        PSCENC =         0.23448562
  Ewald energy   TEWEN  =       127.58931261
  -Hartree energ DENC   =      -283.35641871
  -exchange      EXHF   =         0.00000000
  -V(xc)+E(xc)   XCENC  =        24.62412537
  PAW double counting   =       447.22656652     -448.01107732
  entropy T*S    EENTRO =        -0.00000000
  eigenvalues    EBANDS =       -89.34477917
  atomic energy  EATOM  =       197.04175453
  Solvation  Ediel_sol  =         0.00000000
  ---------------------------------------------------
  free energy    TOTEN  =       -23.99603054 eV

  energy without entropy =      -23.99603054  energy(sigma->0) =      -23.99603054


--------------------------------------------------------------------------------------------------------




--------------------------------------- Iteration      1(  11)  ---------------------------------------


    POTLOK:  cpu time    0.2150: real time    0.2264
    SETDIJ:  cpu time    0.0018: real time    0.0018
    EDDIAG:  cpu time    0.0423: real time    0.0438
  RMM-DIIS:  cpu time    0.1681: real time    0.1755
    ORTHCH:  cpu time    0.0023: real time    0.0024
       DOS:  cpu time    0.0002: real time    0.0002
    CHARGE:  cpu time    0.0209: real time    0.0215
    MIXING:  cpu time    0.0053: real time    0.0054
    --------------------------------------------
      LOOP:  cpu time    0.4559: real time    0.4772

 eigenvalue-minimisations  :    64
 total energy-change (2. order) :-0.8703073E-03  (-0.8858299E-03)
 number of electron       7.9999999 magnetization 
 augmentation part        0.1825014 magnetization 

 Broyden mixing:
  rms(total) = 0.93486E-02    rms(broyden)= 0.93453E-02
  rms(prec ) = 0.14977E-01
  weight for this iteration     100.00

 eigenvalues of (default mixing * dielectric matrix)
  average eigenvalue GAMMA=   2.2761
  4.8559  3.0767  2.4266  1.2626  1.0175  1.0175

 Free energy of the ion-electron system (eV)
  ---------------------------------------------------
  alpha Z        PSCENC =         0.23448562
  Ewald energy   TEWEN  =       127.58931261
  -Hartree energ DENC   =      -283.24770345
  -exchange      EXHF   =         0.00000000
  -V(xc)+E(xc)   XCENC  =        24.63843900
  PAW double counting   =       456.16488890     -456.94169797
  entropy T*S    EENTRO =        -0.00000000
  eigenvalues    EBANDS =       -89.47638009
  atomic energy  EATOM  =       197.04175453
  Solvation  Ediel_sol  =         0.00000000
  ---------------------------------------------------
  free energy    TOTEN  =       -23.99690085 eV

  energy without entropy =      -23.99690085  energy(sigma->0) =      -23.99690085


--------------------------------------------------------------------------------------------------------




--------------------------------------- Iteration      1(  12)  ---------------------------------------


    POTLOK:  cpu time    0.1496: real time    0.1563
    SETDIJ:  cpu time    0.0021: real time    0.0023
    EDDIAG:  cpu time    0.0415: real time    0.0434
  RMM-DIIS:  cpu time    0.1683: real time    0.1844
    ORTHCH:  cpu time    0.0515: real time    0.0566
       DOS:  cpu time    0.0003: real time    0.0003
    CHARGE:  cpu time    0.0514: real time    0.0551
    MIXING:  cpu time    0.0097: real time    0.0100
    --------------------------------------------
      LOOP:  cpu time    0.4744: real time    0.5084

 eigenvalue-minimisations  :    64
 total energy-change (2. order) :-0.9268875E-02  (-0.2974789E-03)
 number of electron       7.9999999 magnetization 
 augmentation part        0.1826837 magnetization 

 Broyden mixing:
  rms(total) = 0.11819E-01    rms(broyden)= 0.11818E-01
  rms(prec ) = 0.15533E-01
  weight for this iteration     100.00

 eigenvalues of (default mixing * dielectric matrix)
  average eigenvalue GAMMA=   2.0175
  4.8110  2.9359  2.4232  1.2089  1.0129  1.0129  0.7176

 Free energy of the ion-electron system (eV)
  ---------------------------------------------------
  alpha Z        PSCENC =         0.23448562
  Ewald energy   TEWEN  =       127.58931261
  -Hartree energ DENC   =      -283.46913496
  -exchange      EXHF   =         0.00000000
  -V(xc)+E(xc)   XCENC  =        24.63021735
  PAW double counting   =       452.87001210     -453.64619528
  entropy T*S    EENTRO =        -0.00000000
  eigenvalues    EBANDS =       -89.25662169
  atomic energy  EATOM  =       197.04175453
  Solvation  Ediel_sol  =         0.00000000
  ---------------------------------------------------
  free energy    TOTEN  =       -24.00616972 eV

  energy without entropy =      -24.00616972  energy(sigma->0) =      -24.00616972


--------------------------------------------------------------------------------------------------------




--------------------------------------- Iteration      1(  13)  ---------------------------------------


    POTLOK:  cpu time    0.4136: real time    0.4333
    SETDIJ:  cpu time    0.0019: real time    0.0020
    EDDIAG:  cpu time    0.0415: real time    0.0433
  RMM-DIIS:  cpu time    0.1693: real time    0.1767
    ORTHCH:  cpu time    0.0017: real time    0.0017
       DOS:  cpu time    0.0002: real time    0.0002
    CHARGE:  cpu time    0.0200: real time    0.0211
    MIXING:  cpu time    0.0057: real time    0.0059
    --------------------------------------------
      LOOP:  cpu time    0.6539: real time    0.6841

 eigenvalue-minimisations  :    64
 total energy-change (2. order) :-0.6024528E-03  (-0.1036395E-03)
 number of electron       7.9999999 magnetization 
 augmentation part        0.1824370 magnetization 

 Broyden mixing:
  rms(total) = 0.42850E-02    rms(broyden)= 0.42846E-02
  rms(prec ) = 0.60480E-02
  weight for this iteration     100.00

 eigenvalues of (default mixing * dielectric matrix)
  average eigenvalue GAMMA=   2.4399
  6.1714  4.1772  2.4612  2.4060  1.2125  1.2125  0.9929  0.8852

 Free energy of the ion-electron system (eV)
  ---------------------------------------------------
  alpha Z        PSCENC =         0.23448562
  Ewald energy   TEWEN  =       127.58931261
  -Hartree energ DENC   =      -283.64752106
  -exchange      EXHF   =         0.00000000
  -V(xc)+E(xc)   XCENC  =        24.63501458
  PAW double counting   =       452.66942303     -453.44794057
  entropy T*S    EENTRO =        -0.00000000
  eigenvalues    EBANDS =       -89.08130091
  atomic energy  EATOM  =       197.04175453
  Solvation  Ediel_sol  =         0.00000000
  ---------------------------------------------------
  free energy    TOTEN  =       -24.00677218 eV

  energy without entropy =      -24.00677218  energy(sigma->0) =      -24.00677218


--------------------------------------------------------------------------------------------------------




--------------------------------------- Iteration      1(  14)  ---------------------------------------


    POTLOK:  cpu time    0.1422: real time    0.1491
    SETDIJ:  cpu time    0.0018: real time    0.0018
    EDDIAG:  cpu time    0.0417: real time    0.0433
  RMM-DIIS:  cpu time    0.1672: real time    0.1715
    ORTHCH:  cpu time    0.0016: real time    0.0016
       DOS:  cpu time    0.0002: real time    0.0002
    CHARGE:  cpu time    0.0197: real time    0.0204
    MIXING:  cpu time    0.0062: real time    0.0062
    --------------------------------------------
      LOOP:  cpu time    0.3805: real time    0.3941

 eigenvalue-minimisations  :    64
 total energy-change (2. order) :-0.2859989E-02  (-0.1209373E-03)
 number of electron       7.9999999 magnetization 
 augmentation part        0.1823278 magnetization 

 Broyden mixing:
  rms(total) = 0.28276E-02    rms(broyden)= 0.28260E-02
  rms(prec ) = 0.36992E-02
  weight for this iteration     100.00

 eigenvalues of (default mixing * dielectric matrix)
  average eigenvalue GAMMA=   2.3403
  6.4715  4.0077  2.6128  2.3561  1.2150  1.2150  0.9277  0.9790  1.2776

 Free energy of the ion-electron system (eV)
  ---------------------------------------------------
  alpha Z        PSCENC =         0.23448562
  Ewald energy   TEWEN  =       127.58931261
  -Hartree energ DENC   =      -283.64004075
  -exchange      EXHF   =         0.00000000
  -V(xc)+E(xc)   XCENC  =        24.62480579
  PAW double counting   =       452.02556282     -452.80525290
  entropy T*S    EENTRO =        -0.00000000
  eigenvalues    EBANDS =       -89.08025988
  atomic energy  EATOM  =       197.04175453
  Solvation  Ediel_sol  =         0.00000000
  ---------------------------------------------------
  free energy    TOTEN  =       -24.00963217 eV

  energy without entropy =      -24.00963217  energy(sigma->0) =      -24.00963217


--------------------------------------------------------------------------------------------------------




--------------------------------------- Iteration      1(  15)  ---------------------------------------


    POTLOK:  cpu time    0.1464: real time    0.1511
    SETDIJ:  cpu time    0.0019: real time    0.0019
    EDDIAG:  cpu time    0.0418: real time    0.0430
  RMM-DIIS:  cpu time    0.1655: real time    0.1705
    ORTHCH:  cpu time    0.0018: real time    0.0018
       DOS:  cpu time    0.0002: real time    0.0002
    CHARGE:  cpu time    0.0198: real time    0.0205
    MIXING:  cpu time    0.0060: real time    0.0062
    --------------------------------------------
      LOOP:  cpu time    0.3834: real time    0.3952

 eigenvalue-minimisations  :    64
 total energy-change (2. order) :-0.2411863E-03  (-0.3822001E-05)
 number of electron       7.9999999 magnetization 
 augmentation part        0.1822847 magnetization 

 Broyden mixing:
  rms(total) = 0.18788E-02    rms(broyden)= 0.18786E-02
  rms(prec ) = 0.24938E-02
  weight for this iteration     100.00

 eigenvalues of (default mixing * dielectric matrix)
  average eigenvalue GAMMA=   2.5385
  7.5786  4.8247  2.8465  2.6225  2.1428  1.2486  1.2486  0.9854  0.9854  0.9017

 Free energy of the ion-electron system (eV)
  ---------------------------------------------------
  alpha Z        PSCENC =         0.23448562
  Ewald energy   TEWEN  =       127.58931261
  -Hartree energ DENC   =      -283.64970499
  -exchange      EXHF   =         0.00000000
  -V(xc)+E(xc)   XCENC  =        24.62605550
  PAW double counting   =       452.19676874     -452.97600401
  entropy T*S    EENTRO =        -0.00000000
  eigenvalues    EBANDS =       -89.07254135
  atomic energy  EATOM  =       197.04175453
  Solvation  Ediel_sol  =         0.00000000
  ---------------------------------------------------
  free energy    TOTEN  =       -24.00987335 eV

  energy without entropy =      -24.00987335  energy(sigma->0) =      -24.00987335


--------------------------------------------------------------------------------------------------------




--------------------------------------- Iteration      1(  16)  ---------------------------------------


    POTLOK:  cpu time    0.1456: real time    0.1487
    SETDIJ:  cpu time    0.0021: real time    0.0021
    EDDIAG:  cpu time    0.0412: real time    0.0422
  RMM-DIIS:  cpu time    0.1648: real time    0.1691
    ORTHCH:  cpu time    0.0016: real time    0.0016
       DOS:  cpu time    0.0002: real time    0.0002
    CHARGE:  cpu time    0.0196: real time    0.0201
    MIXING:  cpu time    0.0061: real time    0.0064
    --------------------------------------------
      LOOP:  cpu time    0.3812: real time    0.3903

 eigenvalue-minimisations  :    64
 total energy-change (2. order) :-0.2113842E-03  (-0.1253524E-04)
 number of electron       7.9999999 magnetization 
 augmentation part        0.1823417 magnetization 

 Broyden mixing:
  rms(total) = 0.73961E-03    rms(broyden)= 0.73912E-03
  rms(prec ) = 0.99545E-03
  weight for this iteration     100.00

 eigenvalues of (default mixing * dielectric matrix)
  average eigenvalue GAMMA=   2.5015
  7.8109  4.8760  3.3578  2.4310  2.1631  1.5138  1.2484  1.2484  1.0208  0.9233
  0.9233

 Free energy of the ion-electron system (eV)
  ---------------------------------------------------
  alpha Z        PSCENC =         0.23448562
  Ewald energy   TEWEN  =       127.58931261
  -Hartree energ DENC   =      -283.60140060
  -exchange      EXHF   =         0.00000000
  -V(xc)+E(xc)   XCENC  =        24.62441152
  PAW double counting   =       452.21817089     -452.99676566
  entropy T*S    EENTRO =        -0.00000000
  eigenvalues    EBANDS =       -89.12005364
  atomic energy  EATOM  =       197.04175453
  Solvation  Ediel_sol  =         0.00000000
  ---------------------------------------------------
  free energy    TOTEN  =       -24.01008474 eV

  energy without entropy =      -24.01008474  energy(sigma->0) =      -24.01008474


--------------------------------------------------------------------------------------------------------




--------------------------------------- Iteration      1(  17)  ---------------------------------------


    POTLOK:  cpu time    0.1444: real time    0.1495
    SETDIJ:  cpu time    0.0020: real time    0.0020
    EDDIAG:  cpu time    0.0419: real time    0.0429
  RMM-DIIS:  cpu time    0.1663: real time    0.1707
    ORTHCH:  cpu time    0.0016: real time    0.0016
       DOS:  cpu time    0.0002: real time    0.0002
    CHARGE:  cpu time    0.0203: real time    0.0207
    MIXING:  cpu time    0.0067: real time    0.0070
    --------------------------------------------
      LOOP:  cpu time    0.3833: real time    0.3946

 eigenvalue-minimisations  :    64
 total energy-change (2. order) :-0.3641099E-04  (-0.2141330E-05)
 number of electron       7.9999999 magnetization 
 augmentation part        0.1823144 magnetization 

 Broyden mixing:
  rms(total) = 0.32126E-03    rms(broyden)= 0.32124E-03
  rms(prec ) = 0.47299E-03
  weight for this iteration     100.00

 eigenvalues of (default mixing * dielectric matrix)
  average eigenvalue GAMMA=   2.5972
  8.4960  5.3078  3.9069  2.5872  2.4864  1.8573  1.2948  1.2948  1.0970  0.9981
  0.9202  0.9202

 Free energy of the ion-electron system (eV)
  ---------------------------------------------------
  alpha Z        PSCENC =         0.23448562
  Ewald energy   TEWEN  =       127.58931261
  -Hartree energ DENC   =      -283.64173854
  -exchange      EXHF   =         0.00000000
  -V(xc)+E(xc)   XCENC  =        24.62620894
  PAW double counting   =       452.19926509     -452.97818980
  entropy T*S    EENTRO =        -0.00000000
  eigenvalues    EBANDS =       -89.08121960
  atomic energy  EATOM  =       197.04175453
  Solvation  Ediel_sol  =         0.00000000
  ---------------------------------------------------
  free energy    TOTEN  =       -24.01012115 eV

  energy without entropy =      -24.01012115  energy(sigma->0) =      -24.01012115


--------------------------------------------------------------------------------------------------------




--------------------------------------- Iteration      1(  18)  ---------------------------------------


    POTLOK:  cpu time    0.2338: real time    0.2391
    SETDIJ:  cpu time    0.0035: real time    0.0036
    EDDIAG:  cpu time    0.0420: real time    0.0429
  RMM-DIIS:  cpu time    0.1350: real time    0.1385
    ORTHCH:  cpu time    0.0019: real time    0.0020
       DOS:  cpu time    0.0002: real time    0.0002
    CHARGE:  cpu time    0.0228: real time    0.0232
    MIXING:  cpu time    0.0096: real time    0.0098
    --------------------------------------------
      LOOP:  cpu time    0.4489: real time    0.4594

 eigenvalue-minimisations  :    48
 total energy-change (2. order) :-0.1222544E-04  (-0.1466410E-06)
 number of electron       7.9999999 magnetization 
 augmentation part        0.1823177 magnetization 

 Broyden mixing:
  rms(total) = 0.63307E-04    rms(broyden)= 0.63305E-04
  rms(prec ) = 0.10038E-03
  weight for this iteration     100.00

 eigenvalues of (default mixing * dielectric matrix)
  average eigenvalue GAMMA=   2.5922
  8.5387  5.5174  3.6513  3.2886  2.3296  2.3296  1.5524  1.2632  1.2632  0.9010
  1.0805  0.9914  0.9914

 Free energy of the ion-electron system (eV)
  ---------------------------------------------------
  alpha Z        PSCENC =         0.23448562
  Ewald energy   TEWEN  =       127.58931261
  -Hartree energ DENC   =      -283.62764999
  -exchange      EXHF   =         0.00000000
  -V(xc)+E(xc)   XCENC  =        24.62545602
  PAW double counting   =       452.17369204     -452.95250164
  entropy T*S    EENTRO =        -0.00000000
  eigenvalues    EBANDS =       -89.09468256
  atomic energy  EATOM  =       197.04175453
  Solvation  Ediel_sol  =         0.00000000
  ---------------------------------------------------
  free energy    TOTEN  =       -24.01013337 eV

  energy without entropy =      -24.01013337  energy(sigma->0) =      -24.01013337


--------------------------------------------------------------------------------------------------------




--------------------------------------- Iteration      1(  19)  ---------------------------------------


    POTLOK:  cpu time    0.1537: real time    0.1578
    SETDIJ:  cpu time    0.0019: real time    0.0019
    EDDIAG:  cpu time    0.0423: real time    0.0433
  RMM-DIIS:  cpu time    0.1322: real time    0.1350
    ORTHCH:  cpu time    0.0016: real time    0.0016
       DOS:  cpu time    0.0002: real time    0.0002
    CHARGE:  cpu time    0.0198: real time    0.0205
    MIXING:  cpu time    0.0070: real time    0.0071
    --------------------------------------------
      LOOP:  cpu time    0.3587: real time    0.3674

 eigenvalue-minimisations  :    48
 total energy-change (2. order) :-0.3855239E-05  (-0.1228465E-06)
 number of electron       7.9999999 magnetization 
 augmentation part        0.1823241 magnetization 

 Broyden mixing:
  rms(total) = 0.11795E-03    rms(broyden)= 0.11793E-03
  rms(prec ) = 0.16590E-03
  weight for this iteration     100.00

 eigenvalues of (default mixing * dielectric matrix)
  average eigenvalue GAMMA=   2.5585
  8.6153  5.5928  3.9953  3.3274  2.4727  2.4727  1.9807  1.2739  1.2739  1.0430
  0.9049  0.9678  0.9490  0.9490

 Free energy of the ion-electron system (eV)
  ---------------------------------------------------
  alpha Z        PSCENC =         0.23448562
  Ewald energy   TEWEN  =       127.58931261
  -Hartree energ DENC   =      -283.62038021
  -exchange      EXHF   =         0.00000000
  -V(xc)+E(xc)   XCENC  =        24.62498039
  PAW double counting   =       452.14678576     -452.92555014
  entropy T*S    EENTRO =        -0.00000000
  eigenvalues    EBANDS =       -89.10152578
  atomic energy  EATOM  =       197.04175453
  Solvation  Ediel_sol  =         0.00000000
  ---------------------------------------------------
  free energy    TOTEN  =       -24.01013723 eV

  energy without entropy =      -24.01013723  energy(sigma->0) =      -24.01013723


--------------------------------------------------------------------------------------------------------




--------------------------------------- Iteration      1(  20)  ---------------------------------------


    POTLOK:  cpu time    0.1540: real time    0.1581
    SETDIJ:  cpu time    0.0019: real time    0.0019
    EDDIAG:  cpu time    0.0415: real time    0.0426
  RMM-DIIS:  cpu time    0.1333: real time    0.1375
    ORTHCH:  cpu time    0.0015: real time    0.0015
       DOS:  cpu time    0.0002: real time    0.0002
    --------------------------------------------
      LOOP:  cpu time    0.3324: real time    0.3419

 eigenvalue-minimisations  :    48
 total energy-change (2. order) :-0.8815548E-06  (-0.2156330E-07)
 number of electron       7.9999999 magnetization 
 augmentation part        0.1823241 magnetization 

 Free energy of the ion-electron system (eV)
  ---------------------------------------------------
  alpha Z        PSCENC =         0.23448562
  Ewald energy   TEWEN  =       127.58931261
  -Hartree energ DENC   =      -283.62457385
  -exchange      EXHF   =         0.00000000
  -V(xc)+E(xc)   XCENC  =        24.62519718
  PAW double counting   =       452.14986285     -452.92866278
  entropy T*S    EENTRO =        -0.00000000
  eigenvalues    EBANDS =       -89.09751427
  atomic energy  EATOM  =       197.04175453
  Solvation  Ediel_sol  =         0.00000000
  ---------------------------------------------------
  free energy    TOTEN  =       -24.01013811 eV

  energy without entropy =      -24.01013811  energy(sigma->0) =      -24.01013811


--------------------------------------------------------------------------------------------------------




 average (electrostatic) potential at core
  the test charge radii are     0.5201  0.6991
  (the norm of the test charge is              1.0000)
       1 -41.4455       2 -41.5533       3 -41.3610       4 -41.3699       5 -58.0322
 
 
 
 E-fermi :  -8.2015     XC(G=0):  -0.6860     alpha+bet : -0.2039


 k-point     1 :       0.2500    0.2500    0.2500
  band No.  band energies     occupation 
      1     -16.8064      2.00000
      2      -9.3379      2.00000
      3      -9.2832      2.00000
      4      -9.1214      2.00000
      5      -0.3294      0.00000
      6       0.5297      0.00000
      7       0.6445      0.00000
      8       0.6673      0.00000

 k-point     2 :      -0.2500    0.2500    0.2500
  band No.  band energies     occupation 
      1     -16.8064      2.00000
      2      -9.3377      2.00000
      3      -9.2832      2.00000
      4      -9.1213      2.00000
      5      -0.3333      0.00000
      6       0.5307      0.00000
      7       0.6470      0.00000
      8       0.6877      0.00000

 k-point     3 :       0.2500   -0.2500    0.2500
  band No.  band energies     occupation 
      1     -16.8065      2.00000
      2      -9.3378      2.00000
      3      -9.2832      2.00000
      4      -9.1213      2.00000
      5      -0.3343      0.00000
      6       0.5384      0.00000
      7       0.6539      0.00000
      8       0.6819      0.00000

 k-point     4 :      -0.2500   -0.2500    0.2500
  band No.  band energies     occupation 
      1     -16.8064      2.00000
      2      -9.3377      2.00000
      3      -9.2832      2.00000
      4      -9.1212      2.00000
      5      -0.3381      0.00000
      6       0.5474      0.00000
      7       0.6677      0.00000
      8       0.6897      0.00000


--------------------------------------------------------------------------------------------------------


 soft charge-density along one line, spin component           1
         0         1         2         3         4         5         6         7         8         9
 total charge-density along one line
 
 pseudopotential strength for first ion, spin component:           1
 -2.341  -4.033  -0.001  -0.001   0.001
 -4.033  -6.863  -0.003  -0.004   0.002
 -0.001  -0.003  -0.338   0.002  -0.001
 -0.001  -0.004   0.002  -0.336  -0.001
  0.001   0.002  -0.001  -0.001  -0.339
 total augmentation occupancy for first ion, spin component:           1
  3.513  -0.634   0.227   0.326  -0.140
 -0.634   0.128  -0.042  -0.061   0.026
  0.227  -0.042   0.021   0.018  -0.008
  0.326  -0.061   0.018   0.034  -0.011
 -0.140   0.026  -0.008  -0.011   0.013


------------------------ aborting loop because EDIFF is reached ----------------------------------------


    CHARGE:  cpu time    0.0201: real time    0.0205
    FORLOC:  cpu time    0.0144: real time    0.0147
    FORNL :  cpu time    0.0216: real time    0.0221
    STRESS:  cpu time    0.1659: real time    0.1691
    FORCOR:  cpu time    0.1505: real time    0.1560
    FORHAR:  cpu time    0.0481: real time    0.0489
    MIXING:  cpu time    0.0068: real time    0.0070
    OFIELD:  cpu time    0.0001: real time    0.0001

  FORCE on cell =-STRESS in cart. coord.  units (eV):
  Direction    XX          YY          ZZ          XY          YZ          ZX
  --------------------------------------------------------------------------------------
  Alpha Z     0.23449     0.23449     0.23449
  Ewald      44.11691    42.38770    41.08465    -0.68276    -1.46660    -2.35963
  Hartree    95.65619    94.08236    93.88918    -0.04164    -0.81268    -0.84332
  E(xc)     -27.09108   -27.07563   -27.08733    -0.00118    -0.00810    -0.01113
  Local    -198.38056  -195.40384  -194.11313     0.50253     2.18298     2.83410
  n-local   -15.69697   -15.58935   -15.61527     0.02388    -0.01922    -0.00193
  augment     0.11775     0.12205     0.12317     0.00200     0.00025     0.00252
  Kinetic   100.73752    99.92819   100.50369     0.03535     0.38601     0.53321
  Fock        0.00000     0.00000     0.00000     0.00000     0.00000     0.00000
  -------------------------------------------------------------------------------------
  Total      -0.30575    -1.31403    -0.98056    -0.16180     0.26264     0.15383
  in kB      -0.47416    -2.03782    -1.52067    -0.25093     0.40730     0.23856
  external pressure =       -1.34 kB  Pullay stress =        0.00 kB

  kinetic pressure (ideal gas correction) =      0.00 kB
  total pressure  =     -1.34 kB
  Total+kin.    -0.474      -2.038      -1.521      -0.251       0.407       0.239

 VOLUME and BASIS-vectors are now :
 -----------------------------------------------------------------------------
  energy-cutoff  :      400.00
  volume of cell :     1033.12
      direct lattice vectors                 reciprocal lattice vectors
     9.990038508  0.000000000  0.000000000     0.100099714 -0.000141798  0.002122514
     0.014436103 10.190939320  0.000000000     0.000000000  0.098126382  0.002738712
    -0.215573045 -0.283222782 10.147699962     0.000000000  0.000000000  0.098544498

  length of vectors
     9.990038508 10.190949545 10.153940191     0.100122315  0.098164593  0.098544498


 FORCES acting on ions
    electron-ion (+dipol)            ewald-force                    non-local-force                 convergence-correction
 -----------------------------------------------------------------------------------------------
   -.174E+02 0.282E+02 0.405E+02   0.191E+02 -.309E+02 -.444E+02   -.180E+01 0.290E+01 0.416E+01   0.891E-04 -.158E-03 -.223E-03
   0.524E+02 -.668E+01 0.323E+01   -.582E+02 0.738E+01 -.366E+01   0.554E+01 -.709E+00 0.317E+00   -.273E-03 0.364E-04 -.187E-04
   -.227E+02 -.465E+02 0.776E+00   0.248E+02 0.505E+02 -.746E+00   -.227E+01 -.468E+01 0.107E+00   0.120E-03 0.262E-03 -.155E-05
   -.104E+02 0.254E+02 -.439E+02   0.115E+02 -.276E+02 0.479E+02   -.102E+01 0.259E+01 -.442E+01   0.551E-04 -.140E-03 0.241E-03
   -.244E+01 -.591E+00 -.826E+00   0.284E+01 0.661E+00 0.969E+00   0.167E+00 0.113E-01 0.115E+00   -.398E-05 0.147E-05 0.975E-06
 -----------------------------------------------------------------------------------------------
   -.625E+00 -.111E+00 -.275E+00   0.178E-14 -.355E-14 -.711E-14   0.624E+00 0.111E+00 0.275E+00   -.129E-04 0.233E-05 -.967E-06
 
 
 POSITION                                       TOTAL-FORCE (eV/Angst)
 -----------------------------------------------------------------------------------
      5.30745      4.04185      3.66146        -0.148529      0.149656      0.194031
      3.85999      4.77433      4.45113        -0.214121     -0.002176     -0.114596
      5.43081      5.64236      4.49996        -0.215621     -0.633924      0.136010
      5.16295      4.08881      5.46380         0.011780      0.404315     -0.474741
      4.93993      4.63753      4.51739         0.566087      0.081833      0.259087
 -----------------------------------------------------------------------------------
    total drift:                               -0.000404     -0.000296     -0.000209


--------------------------------------------------------------------------------------------------------



  FREE ENERGIE OF THE ION-ELECTRON SYSTEM (eV)
  ---------------------------------------------------
  free  energy   TOTEN  =       -24.01013811 eV

  energy  without entropy=      -24.01013811  energy(sigma->0) =      -24.01013811
 


--------------------------------------------------------------------------------------------------------


    POTLOK:  cpu time    0.1522: real time    0.1563


--------------------------------------------------------------------------------------------------------


 stress matrix after NEB project (eV)
     -0.30575     -0.16180      0.15383
     -0.16180     -1.31403      0.26264
      0.15383      0.26264     -0.98056
  FORCES: max atom, RMS     0.683264    0.527486
  FORCE total and by dimension    1.179494    0.633924
  Stress total and by dimension    1.737611    1.314027
           RANDOM_SEED =         581354409                0                0
           RANDOM_SEED =         581354409               30                0
   IONSTEP:  cpu time    0.0034: real time    0.0073

  ENERGY OF THE ELECTRON-ION-THERMOSTAT SYSTEM (eV)
  ---------------------------------------------------
% ion-electron   TOTEN  =       -24.010138  see above
  kinetic energy EKIN   =         0.000314
  kin. lattice  EKIN_LAT=         0.000000  (temperature    0.61 K)
  nose potential ES     =         0.000000
  nose kinetic   EPS    =         0.000000
  ---------------------------------------------------
  total energy   ETOTAL =       -24.009824 eV

  maximum distance moved by ions :      0.16E-03

    WAVPRE:  cpu time    0.0436: real time    0.0448
    FEWALD:  cpu time    0.0003: real time    0.0003
    ORTHCH:  cpu time    0.0089: real time    0.0091
     LOOP+:  cpu time    8.2156: real time    8.5586


--------------------------------------- Iteration      2(   1)  ---------------------------------------


    POTLOK:  cpu time    0.1538: real time    0.1574
    SETDIJ:  cpu time    0.0021: real time    0.0021
     EDDAV:  cpu time    0.1972: real time    0.2029
       DOS:  cpu time    0.0002: real time    0.0002
    CHARGE:  cpu time    0.0193: real time    0.0200
    MIXING:  cpu time    0.0062: real time    0.0064
    --------------------------------------------
      LOOP:  cpu time    0.3791: real time    0.3891

 eigenvalue-minimisations  :    88
 total energy-change (2. order) :-0.2416559E-02  (-0.2669108E-03)
 number of electron       7.9999999 magnetization 
 augmentation part        0.1825964 magnetization 

 Broyden mixing:
  rms(total) = 0.25079E-02    rms(broyden)= 0.25062E-02
  rms(prec ) = 0.32089E-02
  weight for this iteration     100.00

 Free energy of the ion-electron system (eV)
  ---------------------------------------------------
  alpha Z        PSCENC =         0.23448562
  Ewald energy   TEWEN  =       127.76880500
  -Hartree energ DENC   =      -283.73314296
  -exchange      EXHF   =         0.00000000
  -V(xc)+E(xc)   XCENC  =        24.63064959
  PAW double counting   =       452.15078066     -452.92959463
  entropy T*S    EENTRO =        -0.00000000
  eigenvalues    EBANDS =       -89.17629160
  atomic energy  EATOM  =       197.04175453
  Solvation  Ediel_sol  =         0.00000000
  ---------------------------------------------------
  free energy    TOTEN  =       -24.01255379 eV

  energy without entropy =      -24.01255379  energy(sigma->0) =      -24.01255379


--------------------------------------------------------------------------------------------------------




--------------------------------------- Iteration      2(   2)  ---------------------------------------


    POTLOK:  cpu time    0.1585: real time    0.1632
    SETDIJ:  cpu time    0.0019: real time    0.0019
    EDDIAG:  cpu time    0.0416: real time    0.0428
  RMM-DIIS:  cpu time    0.1673: real time    0.1717
    ORTHCH:  cpu time    0.0015: real time    0.0015
       DOS:  cpu time    0.0002: real time    0.0002
    CHARGE:  cpu time    0.0207: real time    0.0214
    MIXING:  cpu time    0.0048: real time    0.0049
    --------------------------------------------
      LOOP:  cpu time    0.3965: real time    0.4077

 eigenvalue-minimisations  :    64
 total energy-change (2. order) : 0.1247240E-04  (-0.7374253E-05)
 number of electron       7.9999999 magnetization 
 augmentation part        0.1825621 magnetization 

 Broyden mixing:
  rms(total) = 0.12800E-02    rms(broyden)= 0.12797E-02
  rms(prec ) = 0.15286E-02
  weight for this iteration     100.00

 eigenvalues of (default mixing * dielectric matrix)
  average eigenvalue GAMMA=   1.6577
  1.6577

 Free energy of the ion-electron system (eV)
  ---------------------------------------------------
  alpha Z        PSCENC =         0.23448562
  Ewald energy   TEWEN  =       127.76880500
  -Hartree energ DENC   =      -283.77037821
  -exchange      EXHF   =         0.00000000
  -V(xc)+E(xc)   XCENC  =        24.63262705
  PAW double counting   =       452.59024243     -453.36948151
  entropy T*S    EENTRO =        -0.00000000
  eigenvalues    EBANDS =       -89.14059621
  atomic energy  EATOM  =       197.04175453
  Solvation  Ediel_sol  =         0.00000000
  ---------------------------------------------------
  free energy    TOTEN  =       -24.01254132 eV

  energy without entropy =      -24.01254132  energy(sigma->0) =      -24.01254132


--------------------------------------------------------------------------------------------------------




--------------------------------------- Iteration      2(   3)  ---------------------------------------


    POTLOK:  cpu time    0.1610: real time    0.1643
    SETDIJ:  cpu time    0.0019: real time    0.0019
    EDDIAG:  cpu time    0.0416: real time    0.0428
  RMM-DIIS:  cpu time    0.1645: real time    0.1701
    ORTHCH:  cpu time    0.0017: real time    0.0018
       DOS:  cpu time    0.0002: real time    0.0002
    CHARGE:  cpu time    0.0203: real time    0.0207
    MIXING:  cpu time    0.0049: real time    0.0050
    --------------------------------------------
      LOOP:  cpu time    0.3962: real time    0.4069

 eigenvalue-minimisations  :    64
 total energy-change (2. order) : 0.3222210E-06  (-0.2293816E-05)
 number of electron       7.9999999 magnetization 
 augmentation part        0.1825297 magnetization 

 Broyden mixing:
  rms(total) = 0.52243E-03    rms(broyden)= 0.52215E-03
  rms(prec ) = 0.60400E-03
  weight for this iteration     100.00

 eigenvalues of (default mixing * dielectric matrix)
  average eigenvalue GAMMA=   1.6258
  1.6258  1.6258

 Free energy of the ion-electron system (eV)
  ---------------------------------------------------
  alpha Z        PSCENC =         0.23448562
  Ewald energy   TEWEN  =       127.76880500
  -Hartree energ DENC   =      -283.79040566
  -exchange      EXHF   =         0.00000000
  -V(xc)+E(xc)   XCENC  =        24.63376626
  PAW double counting   =       452.95860619     -453.73809216
  entropy T*S    EENTRO =        -0.00000000
  eigenvalues    EBANDS =       -89.12146077
  atomic energy  EATOM  =       197.04175453
  Solvation  Ediel_sol  =         0.00000000
  ---------------------------------------------------
  free energy    TOTEN  =       -24.01254099 eV

  energy without entropy =      -24.01254099  energy(sigma->0) =      -24.01254099


--------------------------------------------------------------------------------------------------------




--------------------------------------- Iteration      2(   4)  ---------------------------------------


    POTLOK:  cpu time    0.1579: real time    0.1626
    SETDIJ:  cpu time    0.0019: real time    0.0019
    EDDIAG:  cpu time    0.0418: real time    0.0430
  RMM-DIIS:  cpu time    0.1347: real time    0.1386
    ORTHCH:  cpu time    0.0016: real time    0.0016
       DOS:  cpu time    0.0002: real time    0.0002
    --------------------------------------------
      LOOP:  cpu time    0.3380: real time    0.3477

 eigenvalue-minimisations  :    48
 total energy-change (2. order) : 0.1766665E-08  (-0.9510199E-07)
 number of electron       7.9999999 magnetization 
 augmentation part        0.1825297 magnetization 

 Free energy of the ion-electron system (eV)
  ---------------------------------------------------
  alpha Z        PSCENC =         0.23448562
  Ewald energy   TEWEN  =       127.76880500
  -Hartree energ DENC   =      -283.78361265
  -exchange      EXHF   =         0.00000000
  -V(xc)+E(xc)   XCENC  =        24.63352691
  PAW double counting   =       453.06871320     -453.84810750
  entropy T*S    EENTRO =        -0.00000000
  eigenvalues    EBANDS =       -89.12810609
  atomic energy  EATOM  =       197.04175453
  Solvation  Ediel_sol  =         0.00000000
  ---------------------------------------------------
  free energy    TOTEN  =       -24.01254099 eV

  energy without entropy =      -24.01254099  energy(sigma->0) =      -24.01254099


--------------------------------------------------------------------------------------------------------




 average (electrostatic) potential at core
  the test charge radii are     0.5201  0.6991
  (the norm of the test charge is              1.0000)
       1 -41.4493       2 -41.5471       3 -41.3715       4 -41.3795       5 -58.0273
 
 
 
 E-fermi :  -8.2075     XC(G=0):  -0.6968     alpha+bet : -0.2039


 k-point     1 :       0.2500    0.2500    0.2500
  band No.  band energies     occupation 
      1     -16.8122      2.00000
      2      -9.3362      2.00000
      3      -9.2888      2.00000
      4      -9.1270      2.00000
      5      -0.3312      0.00000
      6       0.5218      0.00000
      7       0.6373      0.00000
      8       0.6605      0.00000

 k-point     2 :      -0.2500    0.2500    0.2500
  band No.  band energies     occupation 
      1     -16.8122      2.00000
      2      -9.3360      2.00000
      3      -9.2888      2.00000
      4      -9.1270      2.00000
      5      -0.3351      0.00000
      6       0.5236      0.00000
      7       0.6403      0.00000
      8       0.6798      0.00000

 k-point     3 :       0.2500   -0.2500    0.2500
  band No.  band energies     occupation 
      1     -16.8122      2.00000
      2      -9.3362      2.00000
      3      -9.2887      2.00000
      4      -9.1270      2.00000
      5      -0.3361      0.00000
      6       0.5293      0.00000
      7       0.6474      0.00000
      8       0.6757      0.00000

 k-point     4 :      -0.2500   -0.2500    0.2500
  band No.  band energies     occupation 
      1     -16.8122      2.00000
      2      -9.3361      2.00000
      3      -9.2888      2.00000
      4      -9.1269      2.00000
      5      -0.3400      0.00000
      6       0.5389      0.00000
      7       0.6612      0.00000
      8       0.6836      0.00000


--------------------------------------------------------------------------------------------------------


 soft charge-density along one line, spin component           1
         0         1         2         3         4         5         6         7         8         9
 total charge-density along one line
 
 pseudopotential strength for first ion, spin component:           1
 -2.341  -4.033  -0.001  -0.001   0.001
 -4.033  -6.864  -0.003  -0.004   0.002
 -0.001  -0.003  -0.338   0.002  -0.001
 -0.001  -0.004   0.002  -0.336  -0.001
  0.001   0.002  -0.001  -0.001  -0.339
 total augmentation occupancy for first ion, spin component:           1
  3.516  -0.634   0.227   0.326  -0.140
 -0.634   0.128  -0.042  -0.061   0.026
  0.227  -0.042   0.021   0.018  -0.008
  0.326  -0.061   0.018   0.034  -0.011
 -0.140   0.026  -0.008  -0.011   0.013


------------------------ aborting loop because EDIFF is reached ----------------------------------------


    CHARGE:  cpu time    0.0201: real time    0.0204
    FORLOC:  cpu time    0.0144: real time    0.0147
    FORNL :  cpu time    0.0210: real time    0.0214
    STRESS:  cpu time    0.1616: real time    0.1641
    FORCOR:  cpu time    0.1515: real time    0.1568
    FORHAR:  cpu time    0.0512: real time    0.0522
    MIXING:  cpu time    0.0061: real time    0.0062
    OFIELD:  cpu time    0.0001: real time    0.0001

  FORCE on cell =-STRESS in cart. coord.  units (eV):
  Direction    XX          YY          ZZ          XY          YZ          ZX
  --------------------------------------------------------------------------------------
  Alpha Z     0.23449     0.23449     0.23449
  Ewald      44.12695    42.46347    41.17833    -0.64959    -1.46040    -2.31834
  Hartree    95.72826    94.11680    93.93977    -0.04394    -0.80172    -0.83249
  E(xc)     -27.09968   -27.08488   -27.09628    -0.00122    -0.00788    -0.01090
  Local    -198.48546  -195.48721  -194.23496     0.48533     2.16035     2.78913
  n-local   -15.71099   -15.61101   -15.63545     0.02217    -0.01797    -0.00202
  augment     0.11775     0.12151     0.12269     0.00187     0.00032     0.00248
  Kinetic   100.77363    99.99528   100.55732     0.03805     0.37631     0.52331
  Fock        0.00000     0.00000     0.00000     0.00000     0.00000     0.00000
  -------------------------------------------------------------------------------------
  Total      -0.31505    -1.25155    -0.93410    -0.14734     0.24900     0.15117
  in kB      -0.48858    -1.94092    -1.44863    -0.22849     0.38615     0.23444
  external pressure =       -1.29 kB  Pullay stress =        0.00 kB

  kinetic pressure (ideal gas correction) =      0.00 kB
  total pressure  =     -1.29 kB
  Total+kin.    -0.488      -1.939      -1.447      -0.228       0.385       0.234

 VOLUME and BASIS-vectors are now :
 -----------------------------------------------------------------------------
  energy-cutoff  :      400.00
  volume of cell :     1033.12
      direct lattice vectors                 reciprocal lattice vectors
     9.990038508  0.000000000  0.000000000     0.100099714 -0.000141798  0.002122514
     0.014436103 10.190939320  0.000000000     0.000000000  0.098126382  0.002738712
    -0.215573045 -0.283222782 10.147699962     0.000000000  0.000000000  0.098544498

  length of vectors
     9.990038508 10.190949545 10.153940191     0.100122315  0.098164593  0.098544498


 FORCES acting on ions
    electron-ion (+dipol)            ewald-force                    non-local-force                 convergence-correction
 -----------------------------------------------------------------------------------------------
   -.174E+02 0.282E+02 0.405E+02   0.191E+02 -.310E+02 -.445E+02   -.180E+01 0.290E+01 0.416E+01   0.224E-03 0.176E-04 0.608E-04
   0.524E+02 -.667E+01 0.324E+01   -.581E+02 0.737E+01 -.367E+01   0.553E+01 -.707E+00 0.318E+00   0.414E-03 0.114E-04 0.119E-03
   -.228E+02 -.465E+02 0.765E+00   0.249E+02 0.506E+02 -.738E+00   -.228E+01 -.470E+01 0.106E+00   0.266E-03 0.182E-03 0.772E-04
   -.104E+02 0.255E+02 -.440E+02   0.115E+02 -.277E+02 0.480E+02   -.102E+01 0.260E+01 -.444E+01   0.215E-03 -.368E-04 0.202E-03
   -.230E+01 -.566E+00 -.775E+00   0.267E+01 0.634E+00 0.909E+00   0.142E+00 0.769E-02 0.105E+00   -.239E-04 0.335E-04 0.904E-04
 -----------------------------------------------------------------------------------------------
[...]
  nose kinetic   EPS    =         0.000000
  ---------------------------------------------------
  total energy   ETOTAL =       -24.009983 eV

  maximum distance moved by ions :      0.40E-03

    WAVPRE:  cpu time    0.0502: real time    0.0517
    FEWALD:  cpu time    0.0003: real time    0.0004
    ORTHCH:  cpu time    0.0090: real time    0.0093
 Prediction of Wavefunctions ALPHA= 2.204 BETA=-1.242
     LOOP+:  cpu time    2.0743: real time    2.1208


--------------------------------------- Iteration     10(   1)  ---------------------------------------


    POTLOK:  cpu time    0.1487: real time    0.1568
    SETDIJ:  cpu time    0.0019: real time    0.0019
     EDDAV:  cpu time    0.1563: real time    0.1614
       DOS:  cpu time    0.0003: real time    0.0003
    CHARGE:  cpu time    0.0191: real time    0.0197
    MIXING:  cpu time    0.0046: real time    0.0048
    --------------------------------------------
      LOOP:  cpu time    0.3311: real time    0.3450

 eigenvalue-minimisations  :    64
 total energy-change (2. order) : 0.3740130E-02  (-0.3031961E-04)
 number of electron       8.0000003 magnetization 
 augmentation part        0.1878398 magnetization 

 Broyden mixing:
  rms(total) = 0.15378E-03    rms(broyden)= 0.15329E-03
  rms(prec ) = 0.19150E-03
  weight for this iteration     100.00

 Free energy of the ion-electron system (eV)
  ---------------------------------------------------
  alpha Z        PSCENC =         0.23448562
  Ewald energy   TEWEN  =       132.25712549
  -Hartree energ DENC   =      -287.73470982
  -exchange      EXHF   =         0.00000000
  -V(xc)+E(xc)   XCENC  =        24.84255498
  PAW double counting   =       480.22487893     -481.02012887
  entropy T*S    EENTRO =        -0.00000000
  eigenvalues    EBANDS =       -89.86261457
  atomic energy  EATOM  =       197.04175453
  Solvation  Ediel_sol  =         0.00000000
  ---------------------------------------------------
  free energy    TOTEN  =       -24.01665371 eV

  energy without entropy =      -24.01665371  energy(sigma->0) =      -24.01665371


--------------------------------------------------------------------------------------------------------




--------------------------------------- Iteration     10(   2)  ---------------------------------------


    POTLOK:  cpu time    0.1496: real time    0.1562
    SETDIJ:  cpu time    0.0018: real time    0.0018
    EDDIAG:  cpu time    0.0402: real time    0.0415
  RMM-DIIS:  cpu time    0.1621: real time    0.1689
    ORTHCH:  cpu time    0.0015: real time    0.0016
       DOS:  cpu time    0.0002: real time    0.0002
    CHARGE:  cpu time    0.0197: real time    0.0203
    MIXING:  cpu time    0.0047: real time    0.0049
    --------------------------------------------
      LOOP:  cpu time    0.3798: real time    0.3954

 eigenvalue-minimisations  :    60
 total energy-change (2. order) :-0.1333081E-05  (-0.4474302E-06)
 number of electron       8.0000003 magnetization 
 augmentation part        0.1878495 magnetization 

 Broyden mixing:
  rms(total) = 0.11583E-03    rms(broyden)= 0.11568E-03
  rms(prec ) = 0.14238E-03
  weight for this iteration     100.00

 eigenvalues of (default mixing * dielectric matrix)
  average eigenvalue GAMMA=   0.7668
  0.7668

 Free energy of the ion-electron system (eV)
  ---------------------------------------------------
  alpha Z        PSCENC =         0.23448562
  Ewald energy   TEWEN  =       132.25712549
  -Hartree energ DENC   =      -287.73274405
  -exchange      EXHF   =         0.00000000
  -V(xc)+E(xc)   XCENC  =        24.84244577
  PAW double counting   =       480.21392943     -481.00912920
  entropy T*S    EENTRO =        -0.00000000
  eigenvalues    EBANDS =       -89.86452264
  atomic energy  EATOM  =       197.04175453
  Solvation  Ediel_sol  =         0.00000000
  ---------------------------------------------------
  free energy    TOTEN  =       -24.01665505 eV

  energy without entropy =      -24.01665505  energy(sigma->0) =      -24.01665505


--------------------------------------------------------------------------------------------------------




--------------------------------------- Iteration     10(   3)  ---------------------------------------


    POTLOK:  cpu time    0.1497: real time    0.1566
    SETDIJ:  cpu time    0.0019: real time    0.0019
    EDDIAG:  cpu time    0.0405: real time    0.0419
  RMM-DIIS:  cpu time    0.1315: real time    0.1382
    ORTHCH:  cpu time    0.0016: real time    0.0017
       DOS:  cpu time    0.0002: real time    0.0002
    CHARGE:  cpu time    0.0200: real time    0.0208
    MIXING:  cpu time    0.0049: real time    0.0051
    --------------------------------------------
      LOOP:  cpu time    0.3504: real time    0.3666

 eigenvalue-minimisations  :    48
 total energy-change (2. order) :-0.6297289E-06  (-0.1581088E-07)
 number of electron       8.0000003 magnetization 
 augmentation part        0.1878514 magnetization 

 Broyden mixing:
  rms(total) = 0.70217E-04    rms(broyden)= 0.70196E-04
  rms(prec ) = 0.84694E-04
  weight for this iteration     100.00

 eigenvalues of (default mixing * dielectric matrix)
  average eigenvalue GAMMA=   1.4059
  1.4059  1.4059

 Free energy of the ion-electron system (eV)
  ---------------------------------------------------
  alpha Z        PSCENC =         0.23448562
  Ewald energy   TEWEN  =       132.25712549
  -Hartree energ DENC   =      -287.73179698
  -exchange      EXHF   =         0.00000000
  -V(xc)+E(xc)   XCENC  =        24.84241168
  PAW double counting   =       480.19778027     -480.99296317
  entropy T*S    EENTRO =        -0.00000000
  eigenvalues    EBANDS =       -89.86545311
  atomic energy  EATOM  =       197.04175453
  Solvation  Ediel_sol  =         0.00000000
  ---------------------------------------------------
  free energy    TOTEN  =       -24.01665568 eV

  energy without entropy =      -24.01665568  energy(sigma->0) =      -24.01665568


--------------------------------------------------------------------------------------------------------




--------------------------------------- Iteration     10(   4)  ---------------------------------------


    POTLOK:  cpu time    0.1511: real time    0.1568
    SETDIJ:  cpu time    0.0020: real time    0.0021
    EDDIAG:  cpu time    0.0406: real time    0.0420
  RMM-DIIS:  cpu time    0.1326: real time    0.1390
    ORTHCH:  cpu time    0.0017: real time    0.0017
       DOS:  cpu time    0.0002: real time    0.0002
    CHARGE:  cpu time    0.0201: real time    0.0216
    MIXING:  cpu time    0.0049: real time    0.0051
    --------------------------------------------
      LOOP:  cpu time    0.3532: real time    0.3685

 eigenvalue-minimisations  :    48
 total energy-change (2. order) :-0.1006155E-05  (-0.1063294E-07)
 number of electron       8.0000003 magnetization 
 augmentation part        0.1878536 magnetization 

 Broyden mixing:
  rms(total) = 0.24797E-04    rms(broyden)= 0.24777E-04
  rms(prec ) = 0.32523E-04
  weight for this iteration     100.00

 eigenvalues of (default mixing * dielectric matrix)
  average eigenvalue GAMMA=   1.5100
  0.9166  1.8068  1.8068

 Free energy of the ion-electron system (eV)
  ---------------------------------------------------
  alpha Z        PSCENC =         0.23448562
  Ewald energy   TEWEN  =       132.25712549
  -Hartree energ DENC   =      -287.73128139
  -exchange      EXHF   =         0.00000000
  -V(xc)+E(xc)   XCENC  =        24.84240504
  PAW double counting   =       480.17689781     -480.97206842
  entropy T*S    EENTRO =        -0.00000000
  eigenvalues    EBANDS =       -89.86597536
  atomic energy  EATOM  =       197.04175453
  Solvation  Ediel_sol  =         0.00000000
  ---------------------------------------------------
  free energy    TOTEN  =       -24.01665668 eV

  energy without entropy =      -24.01665668  energy(sigma->0) =      -24.01665668


--------------------------------------------------------------------------------------------------------




--------------------------------------- Iteration     10(   5)  ---------------------------------------


    POTLOK:  cpu time    0.2760: real time    0.2841
    SETDIJ:  cpu time    0.0019: real time    0.0019
    EDDIAG:  cpu time    0.0408: real time    0.0423
  RMM-DIIS:  cpu time    0.1183: real time    0.1235
    ORTHCH:  cpu time    0.0015: real time    0.0016
       DOS:  cpu time    0.0002: real time    0.0002
    --------------------------------------------
      LOOP:  cpu time    0.4386: real time    0.4536

 eigenvalue-minimisations  :    33
 total energy-change (2. order) :-0.5826133E-06  (-0.1067129E-09)
 number of electron       8.0000003 magnetization 
 augmentation part        0.1878536 magnetization 

 Free energy of the ion-electron system (eV)
  ---------------------------------------------------
  alpha Z        PSCENC =         0.23448562
  Ewald energy   TEWEN  =       132.25712549
  -Hartree energ DENC   =      -287.73202269
  -exchange      EXHF   =         0.00000000
  -V(xc)+E(xc)   XCENC  =        24.84244407
  PAW double counting   =       480.17103394     -480.96621199
  entropy T*S    EENTRO =        -0.00000000
  eigenvalues    EBANDS =       -89.86526623
  atomic energy  EATOM  =       197.04175453
  Solvation  Ediel_sol  =         0.00000000
  ---------------------------------------------------
  free energy    TOTEN  =       -24.01665726 eV

  energy without entropy =      -24.01665726  energy(sigma->0) =      -24.01665726


--------------------------------------------------------------------------------------------------------




 average (electrostatic) potential at core
  the test charge radii are     0.5201  0.6991
  (the norm of the test charge is              1.0000)
       1 -41.5411       2 -41.4201       3 -41.6414       4 -41.6220       5 -57.9099
 
 
 
 E-fermi :  -8.2760     XC(G=0):  -0.6757     alpha+bet : -0.2039


 k-point     1 :       0.2500    0.2500    0.2500
  band No.  band energies     occupation 
      1     -16.9563      2.00000
      2      -9.3987      2.00000
      3      -9.3253      2.00000
      4      -9.2526      2.00000
      5      -0.3009      0.00000
      6       0.5433      0.00000
      7       0.6570      0.00000
      8       0.6753      0.00000

 k-point     2 :      -0.2500    0.2500    0.2500
  band No.  band energies     occupation 
      1     -16.9563      2.00000
      2      -9.3987      2.00000
      3      -9.3252      2.00000
      4      -9.2524      2.00000
      5      -0.3046      0.00000
      6       0.5468      0.00000
      7       0.6626      0.00000
      8       0.6873      0.00000

 k-point     3 :       0.2500   -0.2500    0.2500
  band No.  band energies     occupation 
      1     -16.9563      2.00000
      2      -9.3986      2.00000
      3      -9.3252      2.00000
      4      -9.2525      2.00000
      5      -0.3058      0.00000
      6       0.5554      0.00000
      7       0.6662      0.00000
      8       0.6850      0.00000

 k-point     4 :      -0.2500   -0.2500    0.2500
  band No.  band energies     occupation 
      1     -16.9563      2.00000
      2      -9.3987      2.00000
      3      -9.3252      2.00000
      4      -9.2524      2.00000
      5      -0.3103      0.00000
      6       0.5695      0.00000
      7       0.6769      0.00000
      8       0.6929      0.00000


--------------------------------------------------------------------------------------------------------


 soft charge-density along one line, spin component           1
         0         1         2         3         4         5         6         7         8         9
 total charge-density along one line
 
 pseudopotential strength for first ion, spin component:           1
 -2.341  -4.034  -0.001  -0.001   0.001
 -4.034  -6.866  -0.003  -0.004   0.002
 -0.001  -0.003  -0.337   0.002  -0.001
 -0.001  -0.004   0.002  -0.335  -0.001
  0.001   0.002  -0.001  -0.001  -0.338
 total augmentation occupancy for first ion, spin component:           1
  3.572  -0.642   0.236   0.341  -0.143
 -0.642   0.130  -0.044  -0.063   0.026
  0.236  -0.044   0.022   0.019  -0.008
  0.341  -0.063   0.019   0.036  -0.011
 -0.143   0.026  -0.008  -0.011   0.014


------------------------ aborting loop because EDIFF is reached ----------------------------------------


    CHARGE:  cpu time    0.0202: real time    0.0208
    FORLOC:  cpu time    0.0144: real time    0.0147
    FORNL :  cpu time    0.0213: real time    0.0218
    STRESS:  cpu time    0.1630: real time    0.1654
    FORCOR:  cpu time    0.1513: real time    0.1569
    FORHAR:  cpu time    0.0507: real time    0.0523
    MIXING:  cpu time    0.0052: real time    0.0053
    OFIELD:  cpu time    0.0001: real time    0.0001

  FORCE on cell =-STRESS in cart. coord.  units (eV):
  Direction    XX          YY          ZZ          XY          YZ          ZX
  --------------------------------------------------------------------------------------
  Alpha Z     0.23449     0.23449     0.23449
  Ewald      44.65325    43.94804    43.65578     0.27204    -0.91470    -0.71352
  Hartree    97.51972    94.92629    95.28621    -0.05714    -0.43953    -0.41514
  E(xc)     -27.31785   -27.31964   -27.32129    -0.00146    -0.00071    -0.00265
  Local    -201.25409  -197.16701  -197.46176    -0.05996     1.18663     1.06664
  n-local   -16.07571   -16.15632   -16.14233    -0.01937     0.01368    -0.00353
  augment     0.11609     0.10779     0.10992    -0.00172     0.00162     0.00036
  Kinetic   101.70705   101.79797   101.88077     0.07068     0.03240     0.12911
  Fock        0.00000     0.00000     0.00000     0.00000     0.00000     0.00000
  -------------------------------------------------------------------------------------
  Total      -0.41706     0.37159     0.24179     0.20307    -0.12061     0.06127
  in kB      -0.64679     0.57627     0.37497     0.31493    -0.18704     0.09502
  external pressure =        0.10 kB  Pullay stress =        0.00 kB

  kinetic pressure (ideal gas correction) =      0.01 kB
  total pressure  =      0.11 kB
  Total+kin.    -0.644       0.592       0.383       0.318      -0.195       0.093

 VOLUME and BASIS-vectors are now :
 -----------------------------------------------------------------------------
  energy-cutoff  :      400.00
  volume of cell :     1033.12
      direct lattice vectors                 reciprocal lattice vectors
     9.990038508  0.000000000  0.000000000     0.100099714 -0.000141798  0.002122514
     0.014436103 10.190939320  0.000000000     0.000000000  0.098126382  0.002738712
    -0.215573045 -0.283222782 10.147699962     0.000000000  0.000000000  0.098544498

  length of vectors
     9.990038508 10.190949545 10.153940191     0.100122315  0.098164593  0.098544498


 FORCES acting on ions
    electron-ion (+dipol)            ewald-force                    non-local-force                 convergence-correction
 -----------------------------------------------------------------------------------------------
   -.174E+02 0.288E+02 0.415E+02   0.192E+02 -.319E+02 -.460E+02   -.182E+01 0.302E+01 0.435E+01   0.993E-05 0.113E-05 0.806E-05
   0.521E+02 -.647E+01 0.372E+01   -.572E+02 0.709E+01 -.410E+01   0.532E+01 -.659E+00 0.374E+00   0.265E-04 -.984E-06 -.127E-07
   -.239E+02 -.483E+02 0.296E+00   0.268E+02 0.540E+02 -.315E+00   -.256E+01 -.518E+01 0.399E-01   0.932E-05 -.146E-04 0.113E-04
   -.113E+02 0.260E+02 -.457E+02   0.126E+02 -.290E+02 0.511E+02   -.119E+01 0.278E+01 -.489E+01   0.192E-04 0.144E-04 -.109E-04
   0.105E+01 0.136E+00 0.528E+00   -.138E+01 -.203E+00 -.682E+00   -.376E+00 -.809E-01 -.148E+00   0.787E-04 0.146E-04 0.222E-04
 -----------------------------------------------------------------------------------------------
   0.630E+00 0.123E+00 0.271E+00   -.533E-14 -.355E-14 0.000E+00   -.631E+00 -.123E+00 -.271E+00   0.144E-03 0.145E-04 0.306E-04
 
 
 POSITION                                       TOTAL-FORCE (eV/Angst)
 -----------------------------------------------------------------------------------
      5.29635      4.05072      3.67208         0.061837     -0.136856     -0.206760
      3.84905      4.77293      4.44079         0.208495     -0.033720     -0.012085
      5.42054      5.60353      4.51234         0.299294      0.575732      0.020234
      5.16800      4.11659      5.43683         0.145146     -0.257278      0.500612
      4.94220      4.63783      4.51858        -0.715206     -0.147597     -0.301996
 -----------------------------------------------------------------------------------
    total drift:                               -0.000435      0.000281      0.000005


--------------------------------------------------------------------------------------------------------



  FREE ENERGIE OF THE ION-ELECTRON SYSTEM (eV)
  ---------------------------------------------------
  free  energy   TOTEN  =       -24.01665726 eV

  energy  without entropy=      -24.01665726  energy(sigma->0) =      -24.01665726
 
 d Force =-0.3740837E-02[-0.423E-02,-0.325E-02]  d Energy =-0.3737454E-02-0.338E-05
 d Force =-0.4243327E+00[-0.425E+00,-0.424E+00]  d Ewald  =-0.4243323E+00-0.394E-06


--------------------------------------------------------------------------------------------------------


    POTLOK:  cpu time    0.1534: real time    0.1605


--------------------------------------------------------------------------------------------------------


 stress matrix after NEB project (eV)
     -0.41706      0.20307      0.06127
      0.20307      0.37159     -0.12061
      0.06127     -0.12061      0.24179
  FORCES: max atom, RMS     0.790257    0.546606
  FORCE total and by dimension    1.222247    0.715206
  Stress total and by dimension    0.699688    0.417062
           RANDOM_SEED =         581354409               30                0
   IONSTEP:  cpu time    0.0002: real time    0.0002

  ENERGY OF THE ELECTRON-ION-THERMOSTAT SYSTEM (eV)
  ---------------------------------------------------
% ion-electron   TOTEN  =       -24.016657  see above
  kinetic energy EKIN   =         0.006760
  kin. lattice  EKIN_LAT=         0.000000  (temperature   13.07 K)
  nose potential ES     =         0.000000
  nose kinetic   EPS    =         0.000000
  ---------------------------------------------------
  total energy   ETOTAL =       -24.009897 eV

  maximum distance moved by ions :      0.33E-03


 mean value of Nose-termostat <S>:     1.000 mean value of <T> :    19.663
 mean temperature <T/S>/<1/S>  :    19.663

    WAVPRE:  cpu time    0.0536: real time    0.0551
    FEWALD:  cpu time    0.0006: real time    0.0006
    ORTHCH:  cpu time    0.0088: real time    0.0092
 Prediction of Wavefunctions ALPHA= 2.124 BETA=-1.152
    POTLOK:  cpu time    0.1526: real time    0.1571
    EDDIAG:  cpu time    0.0423: real time    0.0431
     LOOP+:  cpu time    2.6957: real time    2.7974
    4ORBIT:  cpu time    0.0000: real time    0.0007

 total amount of memory used by VASP MPI-rank0    56717. kBytes
=======================================================================

   base      :      30000. kBytes
   nonl-proj :       2791. kBytes
   fftplans  :       8578. kBytes
   grid      :      13527. kBytes
   one-center:          6. kBytes
   wavefun   :       1815. kBytes
 
  
  
 General timing and accounting informations for this job:
 ========================================================
  
                  Total CPU time used (sec):       32.409
                            User time (sec):       29.810
                          System time (sec):        2.599
                         Elapsed time (sec):       34.048
  
                   Maximum memory used (kb):      180488.
                   Average memory used (kb):           0.
  
                          Minor page faults:       264249
                          Major page faults:          127
                 Voluntary context switches:          573
