<?xml version="1.0" encoding="ISO-8859-1"?>
<modeling>
 <generator>
  <i name="program" type="string">vasp </i>
  <i name="version" type="string">5.4.4.18Apr17-6-g9f103f2a35  </i>
  <i name="subversion" type="string">(build Nov 25 2021 15:25:00) complex            parallel </i>
  <i name="platform" type="string">LinuxIFC </i>
  <i name="date" type="string">2022 02 21 </i>
  <i name="time" type="string">10:17:14 </i>
 </generator>
 <incar>
  <i type="string" name="PREC">a</i>
  <i type="string" name="ALGO">Fast</i>
  <i type="int" name="NELM">   120</i>
  <i type="int" name="NELMIN">     4</i>
  <i type="int" name="IBRION">     0</i>
  <i name="EDIFF">      0.00000100</i>
  <i type="int" name="NSW">    10</i>
  <i type="int" name="ISIF">     2</i>
  <i type="int" name="ISYM">     0</i>
  <i name="ENCUT">    400.00000000</i>
  <i name="POTIM">      0.50000000</i>
  <i type="logical" name="LREAL"> F  </i>
  <i type="int" name="ISMEAR">     0</i>
  <i name="SIGMA">      0.20000000</i>
  <i name="KSPACING">      0.50000000</i>
  <i type="logical" name="KGAMMA"> F  </i>
  <i name="PSTRESS">      0.00000000</i>
  <i type="logical" name="LWAVE"> F  </i>
  <i type="logical" name="LCHARG"> F  </i>
  <v type="int" name="KPOINT_BSE">    -1     0     0     0</v>
  <i type="int" name="NELM">   120</i>
 </incar>
 <structure name="primitive_cell" >
  <crystal>
   <varray name="basis" >
    <v>       9.99003851       0.00000000       0.00000000 </v>
    <v>       0.01443610      10.19093932       0.00000000 </v>
    <v>      -0.21557304      -0.28322278      10.14769996 </v>
   </varray>
   <i name="volume">   1033.11578186 </i>
   <varray name="rec_basis" >
    <v>       0.10009971      -0.00014180       0.00212251 </v>
    <v>       0.00000000       0.09812638       0.00273871 </v>
    <v>       0.00000000       0.00000000       0.09854450 </v>
   </varray>
  </crystal>
  <varray name="positions" >
   <v>      -0.46152726       0.40663953       0.36081714 </v>
   <v>      -0.49658408       0.46743610       0.44516418 </v>
   <v>       0.39515444       0.48067775       0.43863455 </v>
   <v>      -0.47217261       0.41618355      -0.46157227 </v>
   <v>      -0.44762680      -0.43401179       0.44344623 </v>
  </varray>
 </structure>
 <varray name="primitive_index" >
  <v type="int" >        1 </v>
  <v type="int" >        5 </v>
  <v type="int" >        2 </v>
  <v type="int" >        4 </v>
  <v type="int" >        3 </v>
 </varray>
 <kpoints>
  <generation param="Monkhorst-Pack">
   <v type="int" name="divisions">       2        2        2 </v>
   <v name="usershift">      0.00000000       0.00000000       0.00000000 </v>
   <v name="genvec1">      0.50000000      -0.00000000       0.00000000 </v>
   <v name="genvec2">      0.00000000       0.50000000       0.00000000 </v>
   <v name="genvec3">      0.00000000       0.00000000       0.50000000 </v>
   <v name="shift">      0.50000000       0.50000000       0.50000000 </v>
  </generation>
  <varray name="kpointlist" >
   <v>       0.25000000       0.25000000       0.25000000 </v>
   <v>      -0.25000000       0.25000000       0.25000000 </v>
   <v>       0.25000000      -0.25000000       0.25000000 </v>
   <v>      -0.25000000      -0.25000000       0.25000000 </v>
  </varray>
  <varray name="weights" >
   <v>       0.25000000 </v>
   <v>       0.25000000 </v>
   <v>       0.25000000 </v>
   <v>       0.25000000 </v>
  </varray>
 </kpoints>
 <parameters>
  <separator name="general" >
   <i type="string" name="SYSTEM">unknown system</i>
   <i type="logical" name="LCOMPAT"> F  </i>
  </separator>
  <separator name="electronic" >
   <i type="string" name="PREC">a</i>
   <i name="ENMAX">    400.00000000</i>
   <i name="ENAUG">    644.87300000</i>
   <i name="EDIFF">      0.00000100</i>
   <i type="int" name="IALGO">    68</i>
   <i type="int" name="IWAVPR">    12</i>
   <i type="int" name="NBANDS">     8</i>
   <i name="NELECT">      8.00000000</i>
   <i type="int" name="TURBO">     0</i>
   <i type="int" name="IRESTART">     0</i>
   <i type="int" name="NREBOOT">     0</i>
   <i type="int" name="NMIN">     0</i>
   <i name="EREF">      0.00000000</i>
   <separator name="electronic smearing" >
    <i type="int" name="ISMEAR">     0</i>
    <i name="SIGMA">      0.20000000</i>
    <i name="KSPACING">      0.50000000</i>
    <i type="logical" name="KGAMMA"> F  </i>
   </separator>
   <separator name="electronic projectors" >
    <i type="logical" name="LREAL"> F  </i>
    <v name="ROPT">      0.00000000      0.00000000</v>
    <i type="int" name="LMAXPAW">  -100</i>
    <i type="int" name="LMAXMIX">     2</i>
    <i type="logical" name="NLSPLINE"> F  </i>
   </separator>
   <separator name="electronic startup" >
    <i type="int" name="ISTART">     0</i>
    <i type="int" name="ICHARG">     2</i>
    <i type="int" name="INIWAV">     1</i>
   </separator>
   <separator name="electronic spin" >
    <i type="int" name="ISPIN">     1</i>
    <i type="logical" name="LNONCOLLINEAR"> F  </i>
    <v name="MAGMOM">      1.00000000      1.00000000      1.00000000      1.00000000      1.00000000</v>
    <i name="NUPDOWN">     -1.00000000</i>
    <i type="logical" name="LSORBIT"> F  </i>
    <v name="SAXIS">      0.00000000      0.00000000      1.00000000</v>
    <i type="logical" name="LSPIRAL"> F  </i>
    <v name="QSPIRAL">      0.00000000      0.00000000      0.00000000</v>
    <i type="logical" name="LZEROZ"> F  </i>
   </separator>
   <separator name="electronic exchange-correlation" >
    <i type="logical" name="LASPH"> F  </i>
    <i type="logical" name="LMETAGGA"> F  </i>
   </separator>
   <separator name="electronic convergence" >
    <i type="int" name="NELM">   120</i>
    <i type="int" name="NELMDL">    -5</i>
    <i type="int" name="NELMIN">     4</i>
    <i name="ENINI">    400.00000000</i>
    <separator name="electronic convergence detail" >
     <i type="logical" name="LDIAG"> T  </i>
     <i type="logical" name="LSUBROT"> F  </i>
     <i name="WEIMIN">      0.00100000</i>
     <i name="EBREAK">      0.00000003</i>
     <i name="DEPER">      0.30000000</i>
     <i type="int" name="NRMM">     4</i>
     <i name="TIME">      0.40000000</i>
    </separator>
   </separator>
   <separator name="electronic mixer" >
    <i name="AMIX">      0.40000000</i>
    <i name="BMIX">      1.00000000</i>
    <i name="AMIN">      0.10000000</i>
    <i name="AMIX_MAG">      1.60000000</i>
    <i name="BMIX_MAG">      1.00000000</i>
    <separator name="electronic mixer details" >
     <i type="int" name="IMIX">     4</i>
     <i type="logical" name="MIXFIRST"> F  </i>
     <i type="int" name="MAXMIX">   -45</i>
     <i name="WC">    100.00000000</i>
     <i type="int" name="INIMIX">     1</i>
     <i type="int" name="MIXPRE">     1</i>
     <i type="int" name="MREMOVE">     5</i>
    </separator>
   </separator>
   <separator name="electronic dipolcorrection" >
    <i type="logical" name="LDIPOL"> F  </i>
    <i type="logical" name="LMONO"> F  </i>
    <i type="int" name="IDIPOL">     0</i>
    <i name="EPSILON">      1.00000000</i>
    <v name="DIPOL">   -100.00000000   -100.00000000   -100.00000000</v>
    <i name="EFIELD">      0.00000000</i>
   </separator>
  </separator>
  <separator name="grids" >
   <i type="int" name="NGX">    70</i>
   <i type="int" name="NGY">    70</i>
   <i type="int" name="NGZ">    70</i>
   <i type="int" name="NGXF">   140</i>
   <i type="int" name="NGYF">   140</i>
   <i type="int" name="NGZF">   140</i>
   <i type="logical" name="ADDGRID"> F  </i>
  </separator>
  <separator name="ionic" >
   <i type="int" name="NSW">    10</i>
   <i type="int" name="IBRION">     0</i>
   <i type="int" name="MDALGO">     0</i>
   <i type="int" name="ISIF">     2</i>
   <i name="PSTRESS">      0.00000000</i>
   <i name="EDIFFG">      0.00001000</i>
   <i type="int" name="NFREE">     0</i>
   <i name="POTIM">      0.50000000</i>
   <i name="SMASS">     -3.00000000</i>
   <i name="SCALEE">      1.00000000</i>
  </separator>
  <separator name="ionic md" >
   <i name="TEBEG">      0.00010000</i>
   <i name="TEEND">      0.00010000</i>
   <i type="int" name="NBLOCK">     1</i>
   <i type="int" name="KBLOCK">    10</i>
   <i type="int" name="NPACO">   256</i>
   <i name="APACO">     16.00000000</i>
  </separator>
  <separator name="symmetry" >
   <i type="int" name="ISYM">     0</i>
   <i name="SYMPREC">      0.00001000</i>
  </separator>
  <separator name="dos" >
   <i type="int" name="LORBIT">     0</i>
   <v name="RWIGS">     -1.00000000     -1.00000000</v>
   <i type="int" name="NEDOS">   301</i>
   <i name="EMIN">     10.00000000</i>
   <i name="EMAX">    -10.00000000</i>
   <i name="EFERMI">      0.00000000</i>
  </separator>
  <separator name="writing" >
   <i type="int" name="NWRITE">     2</i>
   <i type="logical" name="LWAVE"> F  </i>
   <i type="logical" name="LDOWNSAMPLE"> F  </i>
   <i type="logical" name="LCHARG"> F  </i>
   <i type="logical" name="LPARD"> F  </i>
   <i type="logical" name="LVTOT"> F  </i>
   <i type="logical" name="LVHAR"> F  </i>
   <i type="logical" name="LELF"> F  </i>
   <i type="logical" name="LOPTICS"> F  </i>
   <v name="STM">      0.00000000      0.00000000      0.00000000      0.00000000      0.00000000      0.00000000      0.00000000</v>
  </separator>
  <separator name="performance" >
   <i type="int" name="NPAR">     4</i>
   <i type="int" name="NSIM">     4</i>
   <i type="int" name="NBLK">    -1</i>
   <i type="logical" name="LPLANE"> T  </i>
   <i type="logical" name="LSCALAPACK"> T  </i>
   <i type="logical" name="LSCAAWARE"> F  </i>
   <i type="logical" name="LSCALU"> F  </i>
   <i type="logical" name="LASYNC"> F  </i>
   <i type="logical" name="LORBITALREAL"> F  </i>
  </separator>
  <separator name="miscellaneous" >
   <i type="int" name="IDIOT">     3</i>
   <i type="int" name="ISPECIAL">     0</i>
   <i type="logical" name="LMUSIC"> F  </i>
   <v name="POMASS">      1.00000000     12.01100000</v>
   <v name="DARWINR">      0.00000000      0.00000000</v>
   <v name="DARWINV">      1.00000000      1.00000000</v>
   <i type="logical" name="LCORR"> T  </i>
  </separator>
  <i type="logical" name="GGA_COMPAT"> T  </i>
  <i type="logical" name="LBERRY"> F  </i>
  <i type="int" name="ICORELEVEL">     0</i>
  <i type="logical" name="LDAU"> F  </i>
  <i type="int" name="I_CONSTRAINED_M">     0</i>
  <separator name="electronic exchange-correlation" >
   <i type="string" name="GGA">--</i>
   <i type="int" name="VOSKOWN">     0</i>
   <i type="logical" name="LHFCALC"> F  </i>
   <i type="string" name="PRECFOCK"></i>
   <i type="logical" name="LSYMGRAD"> F  </i>
   <i type="logical" name="LHFONE"> F  </i>
   <i type="logical" name="LRHFCALC"> F  </i>
   <i type="logical" name="LTHOMAS"> F  </i>
   <i type="logical" name="LMODELHF"> F  </i>
   <i name="ENCUT4O">     -1.00000000</i>
   <i type="int" name="EXXOEP">     0</i>
   <i type="int" name="FOURORBIT">     0</i>
   <i name="AEXX">      0.00000000</i>
   <i name="HFALPHA">      0.00000000</i>
   <i name="MCALPHA">      0.00000000</i>
   <i name="ALDAX">      1.00000000</i>
   <i name="AGGAX">      1.00000000</i>
   <i name="ALDAC">      1.00000000</i>
   <i name="AGGAC">      1.00000000</i>
   <i type="int" name="NKREDX">     1</i>
   <i type="int" name="NKREDY">     1</i>
   <i type="int" name="NKREDZ">     1</i>
   <i type="logical" name="SHIFTRED"> F  </i>
   <i type="logical" name="ODDONLY"> F  </i>
   <i type="logical" name="EVENONLY"> F  </i>
   <i type="int" name="LMAXFOCK">     0</i>
   <i type="int" name="NMAXFOCKAE">     0</i>
   <i type="logical" name="LFOCKAEDFT"> F  </i>
   <i name="HFSCREEN">      0.00000000</i>
   <i name="HFSCREENC">      0.00000000</i>
   <i type="int" name="NBANDSGWLOW">     0</i>
  </separator>
  <separator name="vdW DFT" >
   <i type="logical" name="LUSE_VDW"> F  </i>
   <i name="Zab_VDW">     -0.84910000</i>
   <i name="PARAM1">      0.12340000</i>
   <i name="PARAM2">      1.00000000</i>
   <i name="PARAM3">      0.00000000</i>
  </separator>
  <separator name="model GW" >
   <i type="int" name="MODEL_GW">     0</i>
   <i name="MODEL_EPS0">    123.97389382</i>
   <i name="MODEL_ALPHA">      1.00000000</i>
  </separator>
  <separator name="linear response parameters" >
   <i type="logical" name="LEPSILON"> F  </i>
   <i type="logical" name="LRPA"> F  </i>
   <i type="logical" name="LNABLA"> F  </i>
   <i type="logical" name="LVEL"> F  </i>
   <i type="int" name="KINTER">     0</i>
   <i name="CSHIFT">      0.10000000</i>
   <i name="OMEGAMAX">     -1.00000000</i>
   <i name="DEG_THRESHOLD">      0.00200000</i>
   <i name="RTIME">     -0.10000000</i>
   <i name="WPLASMAI">      0.00000000</i>
   <v name="DFIELD">      0.00000000      0.00000000      0.00000000</v>
   <v name="WPLASMA">      0.00000000      0.00000000      0.00000000      0.00000000      0.00000000      0.00000000      0.00000000      0.00000000      0.00000000</v>
  </separator>
  <separator name="orbital magnetization" >
   <i type="logical" name="NUCIND"> F  </i>
   <v name="MAGPOS">      0.00000000      0.00000000      0.00000000</v>
   <i type="logical" name="LNICSALL"> T  </i>
   <i type="logical" name="ORBITALMAG"> F  </i>
   <i type="logical" name="LMAGBLOCH"> F  </i>
   <i type="logical" name="LCHIMAG"> F  </i>
   <i type="logical" name="LGAUGE"> T  </i>
   <i type="int" name="MAGATOM">     0</i>
   <v name="MAGDIPOL">      0.00000000      0.00000000      0.00000000</v>
   <v name="AVECCONST">      0.00000000      0.00000000      0.00000000</v>
  </separator>
  <separator name="response functions" >
   <i type="logical" name="LADDER"> F  </i>
   <i type="logical" name="LRPAFORCE"> F  </i>
   <i type="logical" name="LFXC"> F  </i>
   <i type="logical" name="LHARTREE"> T  </i>
   <i type="int" name="IBSE">     0</i>
   <v type="int" name="KPOINT">    -1     0     0     0</v>
   <i type="logical" name="LTCTE"> F  </i>
   <i type="logical" name="LTETE"> F  </i>
   <i type="logical" name="LTRIPLET"> F  </i>
   <i type="logical" name="LFXCEPS"> F  </i>
   <i type="logical" name="LFXHEG"> F  </i>
   <i type="int" name="NATURALO">     2</i>
   <i type="logical" name="L2ORDER"> F  </i>
   <i type="logical" name="LMP2LT"> F  </i>
   <i type="logical" name="LUSEW"> F  </i>
   <i name="ENCUTGW">     -2.00000000</i>
   <i name="ENCUTGWSOFT">     -2.00000000</i>
   <i name="ENCUTLF">     -1.00000000</i>
   <i type="int" name="LMAXMP2">    -1</i>
   <i name="SCISSOR">      0.00000000</i>
   <i type="int" name="NOMEGA">     0</i>
   <i type="int" name="NOMEGAR">     0</i>
   <i type="int" name="NBANDSGW">    -1</i>
   <i type="int" name="NBANDSO">    -1</i>
   <i type="int" name="NBANDSV">    -1</i>
   <i type="int" name="NELM">   120</i>
   <i type="int" name="NELMHF">     1</i>
   <i type="int" name="DIM">     3</i>
   <i type="int" name="ANTIRES">     0</i>
   <i name="OMEGAMAX">    -30.00000000</i>
   <i name="OMEGAMIN">    -30.00000000</i>
   <i name="OMEGATL">   -200.00000000</i>
   <i type="int" name="OMEGAGRID">   140</i>
   <i name="CSHIFT">     -0.10000000</i>
   <i type="logical" name="SELFENERGY"> F  </i>
   <i type="logical" name="LSPECTRAL"> F  </i>
   <i type="logical" name="LSPECTRALGW"> F  </i>
   <i type="logical" name="LSINGLES"> F  </i>
   <i type="logical" name="LFERMIGW"> F  </i>
   <i type="logical" name="ODDONLYGW"> F  </i>
   <i type="logical" name="EVENONLYGW"> F  </i>
   <i type="int" name="NKREDLFX">     1</i>
   <i type="int" name="NKREDLFY">     1</i>
   <i type="int" name="NKREDLFZ">     1</i>
   <i type="int" name="MAXMEM">  2800</i>
   <i type="int" name="TELESCOPE">     0</i>
   <i type="int" name="TAUPAR">     1</i>
   <i type="int" name="OMEGAPAR">    -1</i>
   <i name="LAMBDA">      1.00000000</i>
  </separator>
  <separator name="External order field" >
   <i name="OFIELD_KAPPA">      0.00000000</i>
   <v name="OFIELD_K">      0.00000000      0.00000000      0.00000000</v>
   <i name="OFIELD_Q6_NEAR">      0.00000000</i>
   <i name="OFIELD_Q6_FAR">      0.00000000</i>
   <i name="OFIELD_A">      0.00000000</i>
  </separator>
 </parameters>
 <atominfo>
  <atoms>       5 </atoms>
  <types>       2 </types>
  <array name="atoms" >
   <dimension dim="1">ion</dimension>
   <field type="string">element</field>
   <field type="int">atomtype</field>
   <set>
    <rc><c>H </c><c>   1</c></rc>
    <rc><c>H </c><c>   1</c></rc>
    <rc><c>H </c><c>   1</c></rc>
    <rc><c>H </c><c>   1</c></rc>
    <rc><c>C </c><c>   2</c></rc>
   </set>
  </array>
  <array name="atomtypes" >
   <dimension dim="1">type</dimension>
   <field type="int">atomspertype</field>
   <field type="string">element</field>
   <field>mass</field>
   <field>valence</field>
   <field type="string">pseudopotential</field>
   <set>
    <rc><c>   4</c><c>H </c><c>      1.00000000</c><c>      1.00000000</c><c>  PAW_PBE H 15Jun2001                   </c></rc>
    <rc><c>   1</c><c>C </c><c>     12.01100000</c><c>      4.00000000</c><c>  PAW_PBE C 08Apr2002                   </c></rc>
   </set>
  </array>
 </atominfo>
 <structure name="initialpos" >
  <crystal>
   <varray name="basis" >
    <v>       9.99003851       0.00000000       0.00000000 </v>
    <v>       0.01443610      10.19093932       0.00000000 </v>
    <v>      -0.21557304      -0.28322278      10.14769996 </v>
   </varray>
   <i name="volume">   1033.11578186 </i>
   <varray name="rec_basis" >
    <v>       0.10009971      -0.00014180       0.00212251 </v>
    <v>       0.00000000       0.09812638       0.00273871 </v>
    <v>       0.00000000       0.00000000       0.09854450 </v>
   </varray>
  </crystal>
  <varray name="positions" >
   <v>       0.53847274       0.40663953       0.36081714 </v>
   <v>       0.39515444       0.48067775       0.43863455 </v>
   <v>       0.55237320       0.56598821       0.44344623 </v>
   <v>       0.52782739       0.41618355       0.53842773 </v>
   <v>       0.50341592       0.46743610       0.44516418 </v>
  </varray>
  <varray name="velocities" >
   <v>       0.00000014       0.00000027      -0.00000008 </v>
   <v>      -0.00000053       0.00000057      -0.00000036 </v>
   <v>       0.00000087      -0.00000066       0.00000018 </v>
   <v>      -0.00000010       0.00000049      -0.00000021 </v>
   <v>      -0.00000003      -0.00000006       0.00000004 </v>
  </varray>
 </structure>
 <calculation>
  <scstep>
   <time name="dav">    0.23    0.26</time>
   <time name="total">    0.42    0.48</time>
   <energy>
    <i name="alphaZ">      0.23448562 </i>
    <i name="ewald">    127.58931261 </i>
    <i name="hartreedc">   -244.00098156 </i>
    <i name="XCdc">     21.94945661 </i>
    <i name="pawpsdc">    117.05815612 </i>
    <i name="pawaedc">   -117.66307307 </i>
    <i name="eentropy">     -0.00000000 </i>
    <i name="bandstr">    -91.79589649 </i>
    <i name="atom">    197.04175453 </i>
    <i name="e_fr_energy">     10.41321436 </i>
    <i name="e_wo_entrp">     10.41321436 </i>
    <i name="e_0_energy">     10.41321436 </i>
   </energy>
  </scstep>
  <scstep>
   <time name="dav">    0.17    0.17</time>
   <time name="total">    0.17    0.17</time>
   <energy>
    <i name="e_fr_energy">    -23.56894701 </i>
    <i name="e_wo_entrp">    -23.56894701 </i>
    <i name="e_0_energy">    -23.56894701 </i>
   </energy>
  </scstep>
  <scstep>
   <time name="dav">    0.18    0.18</time>
   <time name="total">    0.18    0.18</time>
   <energy>
    <i name="e_fr_energy">    -27.27978480 </i>
    <i name="e_wo_entrp">    -27.27978480 </i>
    <i name="e_0_energy">    -27.27978480 </i>
   </energy>
  </scstep>
  <scstep>
   <time name="dav">    0.27    0.28</time>
   <time name="total">    0.27    0.28</time>
   <energy>
    <i name="e_fr_energy">    -27.39032087 </i>
    <i name="e_wo_entrp">    -27.39032087 </i>
    <i name="e_0_energy">    -27.39032087 </i>
   </energy>
  </scstep>
  <scstep>
   <time name="dav">    0.22    0.22</time>
   <time name="total">    0.25    0.25</time>
   <energy>
    <i name="e_fr_energy">    -27.39035497 </i>
    <i name="e_wo_entrp">    -27.39035497 </i>
    <i name="e_0_energy">    -27.39035497 </i>
   </energy>
  </scstep>
  <scstep>
   <time name="diag">    0.05    0.06</time>
   <time name="diis">    0.18    0.18</time>
   <time name="orth">    0.00    0.00</time>
   <time name="total">    0.44    0.46</time>
   <energy>
    <i name="e_fr_energy">    -24.62183079 </i>
    <i name="e_wo_entrp">    -24.62183079 </i>
    <i name="e_0_energy">    -24.62183079 </i>
   </energy>
  </scstep>
  <scstep>
   <time name="diag">    0.04    0.04</time>
   <time name="diis">    0.17    0.18</time>
   <time name="orth">    0.00    0.00</time>
   <time name="total">    0.41    0.42</time>
   <energy>
    <i name="e_fr_energy">    -24.15240476 </i>
    <i name="e_wo_entrp">    -24.15240476 </i>
    <i name="e_0_energy">    -24.15240476 </i>
   </energy>
  </scstep>
  <scstep>
   <time name="diag">    0.04    0.04</time>
   <time name="diis">    0.17    0.18</time>
   <time name="orth">    0.00    0.00</time>
   <time name="total">    0.40    0.41</time>
   <energy>
    <i name="e_fr_energy">    -24.00801394 </i>
    <i name="e_wo_entrp">    -24.00801394 </i>
    <i name="e_0_energy">    -24.00801394 </i>
   </energy>
  </scstep>
  <scstep>
   <time name="diag">    0.04    0.04</time>
   <time name="diis">    0.17    0.18</time>
   <time name="orth">    0.00    0.00</time>
   <time name="total">    0.40    0.42</time>
   <energy>
    <i name="e_fr_energy">    -24.00243403 </i>
    <i name="e_wo_entrp">    -24.00243403 </i>
    <i name="e_0_energy">    -24.00243403 </i>
   </energy>
  </scstep>
  <scstep>
   <time name="diag">    0.04    0.04</time>
   <time name="diis">    0.17    0.18</time>
   <time name="orth">    0.00    0.00</time>
   <time name="total">    0.39    0.41</time>
   <energy>
    <i name="e_fr_energy">    -23.99603054 </i>
    <i name="e_wo_entrp">    -23.99603054 </i>
    <i name="e_0_energy">    -23.99603054 </i>
   </energy>
  </scstep>
  <scstep>
   <time name="diag">    0.04    0.04</time>
   <time name="diis">    0.17    0.18</time>
   <time name="orth">    0.00    0.00</time>
   <time name="total">    0.46    0.48</time>
   <energy>
    <i name="e_fr_energy">    -23.99690085 </i>
    <i name="e_wo_entrp">    -23.99690085 </i>
    <i name="e_0_energy">    -23.99690085 </i>
   </energy>
  </scstep>
  <scstep>
   <time name="diag">    0.04    0.04</time>
   <time name="diis">    0.17    0.18</time>
   <time name="orth">    0.05    0.06</time>
   <time name="total">    0.47    0.51</time>
   <energy>
    <i name="e_fr_energy">    -24.00616972 </i>
    <i name="e_wo_entrp">    -24.00616972 </i>
    <i name="e_0_energy">    -24.00616972 </i>
   </energy>
  </scstep>
  <scstep>
   <time name="diag">    0.04    0.04</time>
   <time name="diis">    0.17    0.18</time>
   <time name="orth">    0.00    0.00</time>
   <time name="total">    0.65    0.68</time>
   <energy>
    <i name="e_fr_energy">    -24.00677218 </i>
    <i name="e_wo_entrp">    -24.00677218 </i>
    <i name="e_0_energy">    -24.00677218 </i>
   </energy>
  </scstep>
  <scstep>
   <time name="diag">    0.04    0.04</time>
   <time name="diis">    0.17    0.17</time>
   <time name="orth">    0.00    0.00</time>
   <time name="total">    0.38    0.39</time>
   <energy>
    <i name="e_fr_energy">    -24.00963217 </i>
    <i name="e_wo_entrp">    -24.00963217 </i>
    <i name="e_0_energy">    -24.00963217 </i>
   </energy>
  </scstep>
  <scstep>
   <time name="diag">    0.04    0.04</time>
   <time name="diis">    0.17    0.17</time>
   <time name="orth">    0.00    0.00</time>
   <time name="total">    0.38    0.40</time>
   <energy>
    <i name="e_fr_energy">    -24.00987335 </i>
    <i name="e_wo_entrp">    -24.00987335 </i>
    <i name="e_0_energy">    -24.00987335 </i>
   </energy>
  </scstep>
  <scstep>
   <time name="diag">    0.04    0.04</time>
   <time name="diis">    0.16    0.17</time>
   <time name="orth">    0.00    0.00</time>
   <time name="total">    0.38    0.39</time>
   <energy>
    <i name="e_fr_energy">    -24.01008474 </i>
    <i name="e_wo_entrp">    -24.01008474 </i>
    <i name="e_0_energy">    -24.01008474 </i>
   </energy>
  </scstep>
  <scstep>
   <time name="diag">    0.04    0.04</time>
   <time name="diis">    0.17    0.17</time>
   <time name="orth">    0.00    0.00</time>
   <time name="total">    0.38    0.39</time>
   <energy>
    <i name="e_fr_energy">    -24.01012115 </i>
    <i name="e_wo_entrp">    -24.01012115 </i>
    <i name="e_0_energy">    -24.01012115 </i>
   </energy>
  </scstep>
  <scstep>
   <time name="diag">    0.04    0.04</time>
   <time name="diis">    0.13    0.14</time>
   <time name="orth">    0.00    0.00</time>
   <time name="total">    0.45    0.46</time>
   <energy>
    <i name="e_fr_energy">    -24.01013337 </i>
    <i name="e_wo_entrp">    -24.01013337 </i>
    <i name="e_0_energy">    -24.01013337 </i>
   </energy>
  </scstep>
  <scstep>
   <time name="diag">    0.04    0.04</time>
   <time name="diis">    0.13    0.13</time>
   <time name="orth">    0.00    0.00</time>
   <time name="total">    0.36    0.37</time>
   <energy>
    <i name="e_fr_energy">    -24.01013723 </i>
    <i name="e_wo_entrp">    -24.01013723 </i>
    <i name="e_0_energy">    -24.01013723 </i>
   </energy>
  </scstep>
  <scstep>
   <time name="diag">    0.04    0.04</time>
   <time name="diis">    0.13    0.14</time>
   <time name="orth">    0.00    0.00</time>
   <time name="total">    0.33    0.34</time>
   <energy>
    <i name="alphaZ">      0.23448562 </i>
    <i name="ewald">    127.58931261 </i>
    <i name="hartreedc">   -283.62457385 </i>
    <i name="XCdc">     24.62519718 </i>
    <i name="pawpsdc">    452.14986285 </i>
    <i name="pawaedc">   -452.92866278 </i>
    <i name="eentropy">     -0.00000000 </i>
    <i name="bandstr">    -89.09751427 </i>
    <i name="atom">    197.04175453 </i>
    <i name="e_fr_energy">    -24.01013811 </i>
    <i name="e_wo_entrp">    -24.01013811 </i>
    <i name="e_0_energy">    -24.01013811 </i>
   </energy>
  </scstep>
  <structure>
   <crystal>
    <varray name="basis" >
     <v>       9.99003851       0.00000000       0.00000000 </v>
     <v>       0.01443610      10.19093932       0.00000000 </v>
     <v>      -0.21557304      -0.28322278      10.14769996 </v>
    </varray>
    <i name="volume">   1033.11578186 </i>
    <varray name="rec_basis" >
     <v>       0.10009971      -0.00014180       0.00212251 </v>
     <v>       0.00000000       0.09812638       0.00273871 </v>
     <v>       0.00000000       0.00000000       0.09854450 </v>
    </varray>
   </crystal>
   <varray name="positions" >
    <v>       0.53847274       0.40663953       0.36081714 </v>
    <v>       0.39515444       0.48067775       0.43863455 </v>
    <v>       0.55237320       0.56598821       0.44344623 </v>
    <v>       0.52782739       0.41618355       0.53842773 </v>
    <v>       0.50341592       0.46743610       0.44516418 </v>
   </varray>
  </structure>
  <varray name="forces" >
   <v>      -0.14852924       0.14965631       0.19403074 </v>
   <v>      -0.21412095      -0.00217628      -0.11459562 </v>
   <v>      -0.21562107      -0.63392357       0.13600953 </v>
   <v>       0.01177973       0.40431464      -0.47474057 </v>
   <v>       0.56608721       0.08183314       0.25908732 </v>
  </varray>
  <varray name="stress" >
   <v>      -0.47415594      -0.25092635       0.23856444 </v>
   <v>      -0.25092635      -2.03782008       0.40730383 </v>
   <v>       0.23856444       0.40730383      -1.52067354 </v>
  </varray>
  <energy>
   <i name="e_fr_energy">    -24.01013811 </i>
   <i name="e_wo_entrp">    -24.01013811 </i>
   <i name="e_0_energy">     -0.00000000 </i>
   <i name="kinetic">      0.00031413 </i>
   <i name="lattice kinetic">      0.00000000 </i>
   <i name="nosepot">      0.00000000 </i>
   <i name="nosekinetic">      0.00000000 </i>
   <i name="total">    -24.00982398 </i>
  </energy>
  <time name="totalsc">    8.22    8.56</time>
 </calculation>
 <calculation>
  <scstep>
   <time name="dav">    0.20    0.20</time>
   <time name="total">    0.38    0.39</time>
   <energy>
    <i name="alphaZ">      0.23448562 </i>
    <i name="ewald">    127.76880500 </i>
    <i name="hartreedc">   -283.73314296 </i>
    <i name="XCdc">     24.63064959 </i>
    <i name="pawpsdc">    452.15078066 </i>
    <i name="pawaedc">   -452.92959463 </i>
    <i name="eentropy">     -0.00000000 </i>
    <i name="bandstr">    -89.17629160 </i>
    <i name="atom">    197.04175453 </i>
    <i name="e_fr_energy">    -24.01255379 </i>
    <i name="e_wo_entrp">    -24.01255379 </i>
    <i name="e_0_energy">    -24.01255379 </i>
   </energy>
  </scstep>
  <scstep>
   <time name="diag">    0.04    0.04</time>
   <time name="diis">    0.17    0.17</time>
   <time name="orth">    0.00    0.00</time>
   <time name="total">    0.40    0.41</time>
   <energy>
    <i name="e_fr_energy">    -24.01254132 </i>
    <i name="e_wo_entrp">    -24.01254132 </i>
    <i name="e_0_energy">    -24.01254132 </i>
   </energy>
  </scstep>
  <scstep>
   <time name="diag">    0.04    0.04</time>
   <time name="diis">    0.16    0.17</time>
   <time name="orth">    0.00    0.00</time>
   <time name="total">    0.40    0.41</time>
   <energy>
    <i name="e_fr_energy">    -24.01254099 </i>
    <i name="e_wo_entrp">    -24.01254099 </i>
    <i name="e_0_energy">    -24.01254099 </i>
   </energy>
  </scstep>
  <scstep>
   <time name="diag">    0.04    0.04</time>
   <time name="diis">    0.13    0.14</time>
   <time name="orth">    0.00    0.00</time>
   <time name="total">    0.34    0.35</time>
   <energy>
    <i name="alphaZ">      0.23448562 </i>
    <i name="ewald">    127.76880500 </i>
    <i name="hartreedc">   -283.78361265 </i>
    <i name="XCdc">     24.63352691 </i>
    <i name="pawpsdc">    453.06871320 </i>
    <i name="pawaedc">   -453.84810750 </i>
    <i name="eentropy">     -0.00000000 </i>
    <i name="bandstr">    -89.12810609 </i>
    <i name="atom">    197.04175453 </i>
    <i name="e_fr_energy">    -24.01254099 </i>
    <i name="e_wo_entrp">    -24.01254099 </i>
    <i name="e_0_energy">    -24.01254099 </i>
   </energy>
  </scstep>
  <structure>
   <crystal>
    <varray name="basis" >
     <v>       9.99003851       0.00000000       0.00000000 </v>
     <v>       0.01443610      10.19093932       0.00000000 </v>
     <v>      -0.21557304      -0.28322278      10.14769996 </v>
    </varray>
    <i name="volume">   1033.11578186 </i>
    <varray name="rec_basis" >
     <v>       0.10009971      -0.00014180       0.00212251 </v>
     <v>       0.00000000       0.09812638       0.00273871 </v>
     <v>       0.00000000       0.00000000       0.09854450 </v>
    </varray>
   </crystal>
   <varray name="positions" >
    <v>       0.53843797       0.40667650       0.36086319 </v>
    <v>       0.39510163       0.48067705       0.43860695 </v>
    <v>       0.55232294       0.56583841       0.44347875 </v>
    <v>       0.52782757       0.41627661       0.53831467 </v>
    <v>       0.50342738       0.46743780       0.44516935 </v>
   </varray>
  </structure>
  <varray name="forces" >
   <v>      -0.14092971       0.13792375       0.17741735 </v>
   <v>      -0.19457137      -0.00428845      -0.11171718 </v>
   <v>      -0.19622690      -0.58945856       0.13267722 </v>
   <v>       0.01760911       0.38036202      -0.43792903 </v>
   <v>       0.51366508       0.07510583       0.23916487 </v>
  </varray>
  <varray name="stress" >
   <v>      -0.48858147      -0.22849304       0.23443550 </v>
   <v>      -0.22849304      -1.94092300       0.38614736 </v>
   <v>       0.23443550       0.38614736      -1.44862778 </v>
  </varray>
  <energy>
   <i name="e_fr_energy">    -24.01254099 </i>
   <i name="e_wo_entrp">    -24.01254099 </i>
   <i name="e_0_energy">     -0.00000000 </i>
   <i name="kinetic">      0.00267369 </i>
   <i name="lattice kinetic">      0.00000000 </i>
   <i name="nosepot">      0.00000000 </i>
   <i name="nosekinetic">      0.00000000 </i>
   <i name="total">    -24.00986731 </i>
  </energy>
  <time name="totalsc">    2.16    2.22</time>
 </calculation>
 <calculation>
  <scstep>
   <time name="dav">    0.31    0.32</time>
   <time name="total">    0.50    0.51</time>
   <energy>
    <i name="alphaZ">      0.23448562 </i>
    <i name="ewald">    128.11649297 </i>
    <i name="hartreedc">   -284.08496798 </i>
    <i name="XCdc">     24.64952704 </i>
    <i name="pawpsdc">    455.12891988 </i>
    <i name="pawaedc">   -455.90939204 </i>
    <i name="eentropy">     -0.00000000 </i>
    <i name="bandstr">    -89.19348159 </i>
    <i name="atom">    197.04175453 </i>
    <i name="e_fr_energy">    -24.01666157 </i>
    <i name="e_wo_entrp">    -24.01666157 </i>
    <i name="e_0_energy">    -24.01666157 </i>
   </energy>
  </scstep>
  <scstep>
   <time name="diag">    0.04    0.04</time>
   <time name="diis">    0.17    0.17</time>
   <time name="orth">    0.00    0.00</time>
   <time name="total">    0.40    0.41</time>
   <energy>
    <i name="e_fr_energy">    -24.01666817 </i>
    <i name="e_wo_entrp">    -24.01666817 </i>
    <i name="e_0_energy">    -24.01666817 </i>
   </energy>
  </scstep>
  <scstep>
   <time name="diag">    0.04    0.04</time>
   <time name="diis">    0.16    0.16</time>
   <time name="orth">    0.00    0.00</time>
   <time name="total">    0.39    0.40</time>
   <energy>
    <i name="e_fr_energy">    -24.01666879 </i>
    <i name="e_wo_entrp">    -24.01666879 </i>
    <i name="e_0_energy">    -24.01666879 </i>
   </energy>
  </scstep>
  <scstep>
   <time name="diag">    0.04    0.04</time>
   <time name="diis">    0.13    0.14</time>
   <time name="orth">    0.00    0.00</time>
   <time name="total">    0.34    0.34</time>
   <energy>
    <i name="alphaZ">      0.23448562 </i>
    <i name="ewald">    128.11649297 </i>
    <i name="hartreedc">   -284.09563192 </i>
    <i name="XCdc">     24.64999053 </i>
    <i name="pawpsdc">    455.18873256 </i>
    <i name="pawaedc">   -455.96932595 </i>
    <i name="eentropy">     -0.00000000 </i>
    <i name="bandstr">    -89.18316746 </i>
    <i name="atom">    197.04175453 </i>
    <i name="e_fr_energy">    -24.01666913 </i>
    <i name="e_wo_entrp">    -24.01666913 </i>
    <i name="e_0_energy">    -24.01666913 </i>
   </energy>
  </scstep>
  <structure>
   <crystal>
    <varray name="basis" >
     <v>       9.99003851       0.00000000       0.00000000 </v>
     <v>       0.01443610      10.19093932       0.00000000 </v>
     <v>      -0.21557304      -0.28322278      10.14769996 </v>
    </varray>
    <i name="volume">   1033.11578186 </i>
    <varray name="rec_basis" >
     <v>       0.10009971      -0.00014180       0.00212251 </v>
     <v>       0.00000000       0.09812638       0.00273871 </v>
     <v>       0.00000000       0.00000000       0.09854450 </v>
    </varray>
   </crystal>
   <varray name="positions" >
    <v>       0.53837004       0.40674730       0.36095141 </v>
    <v>       0.39500127       0.48067460       0.43855280 </v>
    <v>       0.55222618       0.56554997       0.44354280 </v>
    <v>       0.52782963       0.41645681       0.53809752 </v>
    <v>       0.50344928       0.46744112       0.44517926 </v>
   </varray>
  </structure>
  <varray name="forces" >
   <v>      -0.12674608       0.11646084       0.14705466 </v>
   <v>      -0.15435363      -0.00858441      -0.10581298 </v>
   <v>      -0.15877551      -0.50391380       0.12626592 </v>
   <v>       0.02880206       0.33450600      -0.36747533 </v>
   <v>       0.41108977       0.06119019       0.19978345 </v>
  </varray>
  <varray name="stress" >
   <v>      -0.51315183      -0.18397215       0.22672485 </v>
   <v>      -0.18397215      -1.74698517       0.34441753 </v>
   <v>       0.22672485       0.34441753      -1.30391490 </v>
  </varray>
  <energy>
   <i name="e_fr_energy">    -24.01666913 </i>
   <i name="e_wo_entrp">    -24.01666913 </i>
   <i name="e_0_energy">     -0.00000000 </i>
   <i name="kinetic">      0.00672825 </i>
   <i name="lattice kinetic">      0.00000000 </i>
   <i name="nosepot">      0.00000000 </i>
   <i name="nosekinetic">      0.00000000 </i>
   <i name="total">    -24.00994088 </i>
  </energy>
  <time name="totalsc">    2.28    2.32</time>
 </calculation>
 <calculation>
  <scstep>
   <time name="dav">    0.19    0.20</time>
   <time name="total">    0.38    0.38</time>
   <energy>
    <i name="alphaZ">      0.23448562 </i>
    <i name="ewald">    128.61098488 </i>
    <i name="hartreedc">   -284.56407461 </i>
    <i name="XCdc">     24.67437120 </i>
    <i name="pawpsdc">    458.12308380 </i>
    <i name="pawaedc">   -458.90568501 </i>
    <i name="eentropy">     -0.00000000 </i>
    <i name="bandstr">    -89.23629049 </i>
    <i name="atom">    197.04175453 </i>
    <i name="e_fr_energy">    -24.02137008 </i>
    <i name="e_wo_entrp">    -24.02137008 </i>
    <i name="e_0_energy">    -24.02137008 </i>
   </energy>
  </scstep>
  <scstep>
   <time name="diag">    0.04    0.04</time>
   <time name="diis">    0.17    0.17</time>
   <time name="orth">    0.00    0.00</time>
   <time name="total">    0.39    0.40</time>
   <energy>
    <i name="e_fr_energy">    -24.02136710 </i>
    <i name="e_wo_entrp">    -24.02136710 </i>
    <i name="e_0_energy">    -24.02136710 </i>
   </energy>
  </scstep>
  <scstep>
   <time name="diag">    0.04    0.04</time>
   <time name="diis">    0.16    0.16</time>
   <time name="orth">    0.00    0.00</time>
   <time name="total">    0.38    0.39</time>
   <energy>
    <i name="e_fr_energy">    -24.02136776 </i>
    <i name="e_wo_entrp">    -24.02136776 </i>
    <i name="e_0_energy">    -24.02136776 </i>
   </energy>
  </scstep>
  <scstep>
   <time name="diag">    0.04    0.04</time>
   <time name="diis">    0.13    0.14</time>
   <time name="orth">    0.00    0.00</time>
   <time name="total">    0.33    0.34</time>
   <energy>
    <i name="alphaZ">      0.23448562 </i>
    <i name="ewald">    128.61098488 </i>
    <i name="hartreedc">   -284.53522967 </i>
    <i name="XCdc">     24.67310109 </i>
    <i name="pawpsdc">    458.01007417 </i>
    <i name="pawaedc">   -458.79231885 </i>
    <i name="eentropy">     -0.00000000 </i>
    <i name="bandstr">    -89.26421990 </i>
    <i name="atom">    197.04175453 </i>
    <i name="e_fr_energy">    -24.02136813 </i>
    <i name="e_wo_entrp">    -24.02136813 </i>
    <i name="e_0_energy">    -24.02136813 </i>
   </energy>
  </scstep>
  <structure>
   <crystal>
    <varray name="basis" >
     <v>       9.99003851       0.00000000       0.00000000 </v>
     <v>       0.01443610      10.19093932       0.00000000 </v>
     <v>      -0.21557304      -0.28322278      10.14769996 </v>
    </varray>
    <i name="volume">   1033.11578186 </i>
    <varray name="rec_basis" >
     <v>       0.10009971      -0.00014180       0.00212251 </v>
     <v>       0.00000000       0.09812638       0.00273871 </v>
     <v>       0.00000000       0.00000000       0.09854450 </v>
    </varray>
   </crystal>
   <varray name="positions" >
    <v>       0.53827222       0.40684664       0.36107459 </v>
    <v>       0.39486310       0.48066943       0.43847351 </v>
    <v>       0.55209190       0.56514309       0.44363687 </v>
    <v>       0.52783666       0.41671376       0.53779303 </v>
    <v>       0.50347952       0.46744577       0.44519312 </v>
   </varray>
  </structure>
  <varray name="forces" >
   <v>      -0.10630657       0.08572640       0.10358911 </v>
   <v>      -0.10095187      -0.01411823      -0.09741121 </v>
   <v>      -0.10487661      -0.38044015       0.11685617 </v>
   <v>       0.04473603       0.26836307      -0.26609254 </v>
   <v>       0.26718622       0.04021332       0.14296042 </v>
  </varray>
  <varray name="stress" >
   <v>      -0.54471153      -0.12126408       0.21556433 </v>
   <v>      -0.12126407      -1.47260012       0.28483425 </v>
   <v>       0.21556433       0.28483425      -1.10003026 </v>
  </varray>
  <energy>
   <i name="e_fr_energy">    -24.02136813 </i>
   <i name="e_wo_entrp">    -24.02136813 </i>
   <i name="e_0_energy">     -0.00000000 </i>
   <i name="kinetic">      0.01134220 </i>
   <i name="lattice kinetic">      0.00000000 </i>
   <i name="nosepot">      0.00000000 </i>
   <i name="nosekinetic">      0.00000000 </i>
   <i name="total">    -24.01002593 </i>
  </energy>
  <time name="totalsc">    2.13    2.18</time>
 </calculation>
 <calculation>
  <scstep>
   <time name="dav">    0.17    0.18</time>
   <time name="total">    0.34    0.35</time>
   <energy>
    <i name="alphaZ">      0.23448562 </i>
    <i name="ewald">    129.21975289 </i>
    <i name="hartreedc">   -285.08270034 </i>
    <i name="XCdc">     24.70194454 </i>
    <i name="pawpsdc">    461.55321949 </i>
    <i name="pawaedc">   -462.33762618 </i>
    <i name="eentropy">     -0.00000000 </i>
    <i name="bandstr">    -89.35612091 </i>
    <i name="atom">    197.04175453 </i>
    <i name="e_fr_energy">    -24.02529036 </i>
    <i name="e_wo_entrp">    -24.02529036 </i>
    <i name="e_0_energy">    -24.02529036 </i>
   </energy>
  </scstep>
  <scstep>
   <time name="diag">    0.04    0.04</time>
   <time name="diis">    0.17    0.17</time>
   <time name="orth">    0.00    0.00</time>
   <time name="total">    0.38    0.39</time>
   <energy>
    <i name="e_fr_energy">    -24.02529287 </i>
    <i name="e_wo_entrp">    -24.02529287 </i>
    <i name="e_0_energy">    -24.02529287 </i>
   </energy>
  </scstep>
  <scstep>
   <time name="diag">    0.04    0.04</time>
   <time name="diis">    0.13    0.14</time>
   <time name="orth">    0.00    0.00</time>
   <time name="total">    0.35    0.36</time>
   <energy>
    <i name="e_fr_energy">    -24.02529551 </i>
    <i name="e_wo_entrp">    -24.02529551 </i>
    <i name="e_0_energy">    -24.02529551 </i>
   </energy>
  </scstep>
  <scstep>
   <time name="diag">    0.04    0.04</time>
   <time name="diis">    0.13    0.14</time>
   <time name="orth">    0.00    0.00</time>
   <time name="total">    0.34    0.36</time>
   <energy>
    <i name="e_fr_energy">    -24.02529731 </i>
    <i name="e_wo_entrp">    -24.02529731 </i>
    <i name="e_0_energy">    -24.02529731 </i>
   </energy>
  </scstep>
  <scstep>
   <time name="diag">    0.04    0.04</time>
   <time name="diis">    0.13    0.14</time>
   <time name="orth">    0.00    0.00</time>
   <time name="total">    0.35    0.36</time>
   <energy>
    <i name="e_fr_energy">    -24.02530034 </i>
    <i name="e_wo_entrp">    -24.02530034 </i>
    <i name="e_0_energy">    -24.02530034 </i>
   </energy>
  </scstep>
  <scstep>
   <time name="diag">    0.04    0.04</time>
   <time name="diis">    0.13    0.13</time>
   <time name="orth">    0.00    0.00</time>
   <time name="total">    0.33    0.33</time>
   <energy>
    <i name="alphaZ">      0.23448562 </i>
    <i name="ewald">    129.21975289 </i>
    <i name="hartreedc">   -285.07373133 </i>
    <i name="XCdc">     24.70150796 </i>
    <i name="pawpsdc">    461.59182489 </i>
    <i name="pawaedc">   -462.37617436 </i>
    <i name="eentropy">     -0.00000000 </i>
    <i name="bandstr">    -89.36472140 </i>
    <i name="atom">    197.04175453 </i>
    <i name="e_fr_energy">    -24.02530120 </i>
    <i name="e_wo_entrp">    -24.02530120 </i>
    <i name="e_0_energy">    -24.02530120 </i>
   </energy>
  </scstep>
  <structure>
   <crystal>
    <varray name="basis" >
     <v>       9.99003851       0.00000000       0.00000000 </v>
     <v>       0.01443610      10.19093932       0.00000000 </v>
     <v>      -0.21557304      -0.28322278      10.14769996 </v>
    </varray>
    <i name="volume">   1033.11578186 </i>
    <varray name="rec_basis" >
     <v>       0.10009971      -0.00014180       0.00212251 </v>
     <v>       0.00000000       0.09812638       0.00273871 </v>
     <v>       0.00000000       0.00000000       0.09854450 </v>
    </varray>
   </crystal>
   <varray name="positions" >
    <v>       0.53814923       0.40696697       0.36122240 </v>
    <v>       0.39470007       0.48066028       0.43837105 </v>
    <v>       0.55193303       0.56464694       0.44375872 </v>
    <v>       0.52785303       0.41703248       0.53742529 </v>
    <v>       0.50351520       0.46745128       0.44520982 </v>
   </varray>
  </structure>
  <varray name="forces" >
   <v>      -0.08083113       0.04790487       0.05013779 </v>
   <v>      -0.03859587      -0.02027794      -0.08665346 </v>
   <v>      -0.03747645      -0.22555922       0.10465063 </v>
   <v>       0.06427775       0.18535403      -0.13951943 </v>
   <v>       0.09220609       0.01235396       0.07119461 </v>
  </varray>
  <varray name="stress" >
   <v>      -0.57951628      -0.04417501       0.20174217 </v>
   <v>      -0.04417501      -1.13368542       0.21019181 </v>
   <v>       0.20174217       0.21019181      -0.85002354 </v>
  </varray>
  <energy>
   <i name="e_fr_energy">    -24.02530120 </i>
   <i name="e_wo_entrp">    -24.02530120 </i>
   <i name="e_0_energy">     -0.00000000 </i>
   <i name="kinetic">      0.01520297 </i>
   <i name="lattice kinetic">      0.00000000 </i>
   <i name="nosepot">      0.00000000 </i>
   <i name="nosekinetic">      0.00000000 </i>
   <i name="total">    -24.01009823 </i>
  </energy>
  <time name="totalsc">    2.74    2.81</time>
 </calculation>
 <calculation>
  <scstep>
   <time name="dav">    0.17    0.17</time>
   <time name="total">    0.35    0.36</time>
   <energy>
    <i name="alphaZ">      0.23448562 </i>
    <i name="ewald">    129.89984402 </i>
    <i name="hartreedc">   -285.65349705 </i>
    <i name="XCdc">     24.73227206 </i>
    <i name="pawpsdc">    465.66689373 </i>
    <i name="pawaedc">   -466.45343892 </i>
    <i name="eentropy">     -0.00000000 </i>
    <i name="bandstr">    -89.49564975 </i>
    <i name="atom">    197.04175453 </i>
    <i name="e_fr_energy">    -24.02733575 </i>
    <i name="e_wo_entrp">    -24.02733575 </i>
    <i name="e_0_energy">    -24.02733575 </i>
   </energy>
  </scstep>
  <scstep>
   <time name="diag">    0.04    0.04</time>
   <time name="diis">    0.17    0.17</time>
   <time name="orth">    0.00    0.00</time>
   <time name="total">    0.48    0.49</time>
   <energy>
    <i name="e_fr_energy">    -24.02733734 </i>
    <i name="e_wo_entrp">    -24.02733734 </i>
    <i name="e_0_energy">    -24.02733734 </i>
   </energy>
  </scstep>
  <scstep>
   <time name="diag">    0.04    0.05</time>
   <time name="diis">    0.17    0.17</time>
   <time name="orth">    0.02    0.02</time>
   <time name="total">    0.46    0.47</time>
   <energy>
    <i name="e_fr_energy">    -24.02734075 </i>
    <i name="e_wo_entrp">    -24.02734075 </i>
    <i name="e_0_energy">    -24.02734075 </i>
   </energy>
  </scstep>
  <scstep>
   <time name="diag">    0.04    0.04</time>
   <time name="diis">    0.14    0.14</time>
   <time name="orth">    0.00    0.00</time>
   <time name="total">    0.34    0.34</time>
   <energy>
    <i name="alphaZ">      0.23448562 </i>
    <i name="ewald">    129.89984402 </i>
    <i name="hartreedc">   -285.67178482 </i>
    <i name="XCdc">     24.73314507 </i>
    <i name="pawpsdc">    465.64215116 </i>
    <i name="pawaedc">   -466.42889438 </i>
    <i name="eentropy">     -0.00000000 </i>
    <i name="bandstr">    -89.47804231 </i>
    <i name="atom">    197.04175453 </i>
    <i name="e_fr_energy">    -24.02734110 </i>
    <i name="e_wo_entrp">    -24.02734110 </i>
    <i name="e_0_energy">    -24.02734110 </i>
   </energy>
  </scstep>
  <structure>
   <crystal>
    <varray name="basis" >
     <v>       9.99003851       0.00000000       0.00000000 </v>
     <v>       0.01443610      10.19093932       0.00000000 </v>
     <v>      -0.21557304      -0.28322278      10.14769996 </v>
    </varray>
    <i name="volume">   1033.11578186 </i>
    <varray name="rec_basis" >
     <v>       0.10009971      -0.00014180       0.00212251 </v>
     <v>       0.00000000       0.09812638       0.00273871 </v>
     <v>       0.00000000       0.00000000       0.09854450 </v>
    </varray>
   </crystal>
   <varray name="positions" >
    <v>       0.53800698       0.40709896       0.36138213 </v>
    <v>       0.39452729       0.48064575       0.43824801 </v>
    <v>       0.55176573       0.56409810       0.44390545 </v>
    <v>       0.52788416       0.41739416       0.53702438 </v>
    <v>       0.50355276       0.46745708       0.44522793 </v>
   </varray>
  </structure>
  <varray name="forces" >
   <v>      -0.05185732       0.00589257      -0.00908031 </v>
   <v>       0.02659590      -0.02620241      -0.07391353 </v>
   <v>       0.03876840      -0.04961938       0.09015894 </v>
   <v>       0.08584070       0.09089670       0.00346186 </v>
   <v>      -0.10000770      -0.02112546      -0.01094165 </v>
  </varray>
  <varray name="stress" >
   <v>      -0.61166901       0.04119388       0.18540526 </v>
   <v>       0.04119388      -0.75411076       0.12543590 </v>
   <v>       0.18540526       0.12543590      -0.57196209 </v>
  </varray>
  <energy>
   <i name="e_fr_energy">    -24.02734110 </i>
   <i name="e_wo_entrp">    -24.02734110 </i>
   <i name="e_0_energy">     -0.00000000 </i>
   <i name="kinetic">      0.01720395 </i>
   <i name="lattice kinetic">      0.00000000 </i>
   <i name="nosepot">      0.00000000 </i>
   <i name="nosekinetic">      0.00000000 </i>
   <i name="total">    -24.01013715 </i>
  </energy>
  <time name="totalsc">    2.28    2.33</time>
 </calculation>
 <calculation>
  <scstep>
   <time name="dav">    0.16    0.16</time>
   <time name="total">    0.35    0.35</time>
   <energy>
    <i name="alphaZ">      0.23448562 </i>
    <i name="ewald">    130.59975314 </i>
    <i name="hartreedc">   -286.28058393 </i>
    <i name="XCdc">     24.76549656 </i>
    <i name="pawpsdc">    469.90146979 </i>
    <i name="pawaedc">   -470.69063168 </i>
    <i name="eentropy">     -0.00000000 </i>
    <i name="bandstr">    -89.59866904 </i>
    <i name="atom">    197.04175453 </i>
    <i name="e_fr_energy">    -24.02692501 </i>
    <i name="e_wo_entrp">    -24.02692501 </i>
    <i name="e_0_energy">    -24.02692501 </i>
   </energy>
  </scstep>
  <scstep>
   <time name="diag">    0.04    0.04</time>
   <time name="diis">    0.17    0.17</time>
   <time name="orth">    0.00    0.00</time>
   <time name="total">    0.40    0.40</time>
   <energy>
    <i name="e_fr_energy">    -24.02692783 </i>
    <i name="e_wo_entrp">    -24.02692783 </i>
    <i name="e_0_energy">    -24.02692783 </i>
   </energy>
  </scstep>
  <scstep>
   <time name="diag">    0.04    0.04</time>
   <time name="diis">    0.13    0.14</time>
   <time name="orth">    0.00    0.00</time>
   <time name="total">    0.36    0.37</time>
   <energy>
    <i name="e_fr_energy">    -24.02692910 </i>
    <i name="e_wo_entrp">    -24.02692910 </i>
    <i name="e_0_energy">    -24.02692910 </i>
   </energy>
  </scstep>
  <scstep>
   <time name="diag">    0.04    0.04</time>
   <time name="diis">    0.14    0.14</time>
   <time name="orth">    0.00    0.00</time>
   <time name="total">    0.37    0.37</time>
   <energy>
    <i name="e_fr_energy">    -24.02693234 </i>
    <i name="e_wo_entrp">    -24.02693234 </i>
    <i name="e_0_energy">    -24.02693234 </i>
   </energy>
  </scstep>
  <scstep>
   <time name="diag">    0.04    0.04</time>
   <time name="diis">    0.12    0.12</time>
   <time name="orth">    0.00    0.00</time>
   <time name="total">    0.35    0.36</time>
   <energy>
    <i name="e_fr_energy">    -24.02693396 </i>
    <i name="e_wo_entrp">    -24.02693396 </i>
    <i name="e_0_energy">    -24.02693396 </i>
   </energy>
  </scstep>
  <scstep>
   <time name="diag">    0.04    0.04</time>
   <time name="diis">    0.13    0.13</time>
   <time name="orth">    0.00    0.00</time>
   <time name="total">    0.36    0.37</time>
   <energy>
    <i name="e_fr_energy">    -24.02693618 </i>
    <i name="e_wo_entrp">    -24.02693618 </i>
    <i name="e_0_energy">    -24.02693618 </i>
   </energy>
  </scstep>
  <scstep>
   <time name="diag">    0.04    0.04</time>
   <time name="diis">    0.12    0.12</time>
   <time name="orth">    0.00    0.00</time>
   <time name="total">    0.33    0.33</time>
   <energy>
    <i name="alphaZ">      0.23448562 </i>
    <i name="ewald">    130.59975314 </i>
    <i name="hartreedc">   -286.28724348 </i>
    <i name="XCdc">     24.76573174 </i>
    <i name="pawpsdc">    469.86958190 </i>
    <i name="pawaedc">   -470.65878795 </i>
    <i name="eentropy">     -0.00000000 </i>
    <i name="bandstr">    -89.59221177 </i>
    <i name="atom">    197.04175453 </i>
    <i name="e_fr_energy">    -24.02693627 </i>
    <i name="e_wo_entrp">    -24.02693627 </i>
    <i name="e_0_energy">    -24.02693627 </i>
   </energy>
  </scstep>
  <structure>
   <crystal>
    <varray name="basis" >
     <v>       9.99003851       0.00000000       0.00000000 </v>
     <v>       0.01443610      10.19093932       0.00000000 </v>
     <v>      -0.21557304      -0.28322278      10.14769996 </v>
    </varray>
    <i name="volume">   1033.11578186 </i>
    <varray name="rec_basis" >
     <v>       0.10009971      -0.00014180       0.00212251 </v>
     <v>       0.00000000       0.09812638       0.00273871 </v>
     <v>       0.00000000       0.00000000       0.09854450 </v>
    </varray>
   </crystal>
   <varray name="positions" >
    <v>       0.53785216       0.40723229       0.36153971 </v>
    <v>       0.39436057       0.48062454       0.43810739 </v>
    <v>       0.55160828       0.56353811       0.44407362 </v>
    <v>       0.52793600       0.41777737       0.53662431 </v>
    <v>       0.50358833       0.46746247       0.44524582 </v>
   </varray>
  </structure>
  <varray name="forces" >
   <v>      -0.02146086      -0.03654613      -0.06865105 </v>
   <v>       0.08970255      -0.03122847      -0.05955588 </v>
   <v>       0.11762004       0.13371984       0.07390473 </v>
   <v>       0.10720801      -0.00806277       0.15136718 </v>
   <v>      -0.29357128      -0.05791340      -0.09729289 </v>
  </varray>
  <varray name="stress" >
   <v>      -0.63432239       0.12782417       0.16703595 </v>
   <v>       0.12782417      -0.35913496       0.03644951 </v>
   <v>       0.16703595       0.03644951      -0.28458873 </v>
  </varray>
  <energy>
   <i name="e_fr_energy">    -24.02693627 </i>
   <i name="e_wo_entrp">    -24.02693627 </i>
   <i name="e_0_energy">     -0.00000000 </i>
   <i name="kinetic">      0.01680460 </i>
   <i name="lattice kinetic">      0.00000000 </i>
   <i name="nosepot">      0.00000000 </i>
   <i name="nosekinetic">      0.00000000 </i>
   <i name="total">    -24.01013167 </i>
  </energy>
  <time name="totalsc">    3.17    3.22</time>
 </calculation>
 <calculation>
  <scstep>
   <time name="dav">    0.16    0.17</time>
   <time name="total">    0.34    0.36</time>
   <energy>
    <i name="alphaZ">      0.23448562 </i>
    <i name="ewald">    131.26315610 </i>
    <i name="hartreedc">   -286.88989675 </i>
    <i name="XCdc">     24.79752689 </i>
    <i name="pawpsdc">    474.05046274 </i>
    <i name="pawaedc">   -474.84227228 </i>
    <i name="eentropy">     -0.00000000 </i>
    <i name="bandstr">    -89.67950083 </i>
    <i name="atom">    197.04175453 </i>
    <i name="e_fr_energy">    -24.02428398 </i>
    <i name="e_wo_entrp">    -24.02428398 </i>
    <i name="e_0_energy">    -24.02428398 </i>
   </energy>
  </scstep>
  <scstep>
   <time name="diag">    0.04    0.04</time>
   <time name="diis">    0.18    0.19</time>
   <time name="orth">    0.03    0.03</time>
   <time name="total">    0.66    0.69</time>
   <energy>
    <i name="e_fr_energy">    -24.02428618 </i>
    <i name="e_wo_entrp">    -24.02428618 </i>
    <i name="e_0_energy">    -24.02428618 </i>
   </energy>
  </scstep>
  <scstep>
   <time name="diag">    0.04    0.04</time>
   <time name="diis">    0.16    0.17</time>
   <time name="orth">    0.00    0.00</time>
   <time name="total">    0.45    0.47</time>
   <energy>
    <i name="e_fr_energy">    -24.02429011 </i>
    <i name="e_wo_entrp">    -24.02429011 </i>
    <i name="e_0_energy">    -24.02429011 </i>
   </energy>
  </scstep>
  <scstep>
   <time name="diag">    0.04    0.04</time>
   <time name="diis">    0.13    0.14</time>
   <time name="orth">    0.00    0.00</time>
   <time name="total">    0.35    0.36</time>
   <energy>
    <i name="e_fr_energy">    -24.02429168 </i>
    <i name="e_wo_entrp">    -24.02429168 </i>
    <i name="e_0_energy">    -24.02429168 </i>
   </energy>
  </scstep>
  <scstep>
   <time name="diag">    0.04    0.04</time>
   <time name="diis">    0.14    0.14</time>
   <time name="orth">    0.00    0.00</time>
   <time name="total">    0.35    0.37</time>
   <energy>
    <i name="e_fr_energy">    -24.02429543 </i>
    <i name="e_wo_entrp">    -24.02429543 </i>
    <i name="e_0_energy">    -24.02429543 </i>
   </energy>
  </scstep>
  <scstep>
   <time name="diag">    0.04    0.04</time>
   <time name="diis">    0.13    0.14</time>
   <time name="orth">    0.00    0.00</time>
   <time name="total">    0.35    0.37</time>
   <energy>
    <i name="e_fr_energy">    -24.02429712 </i>
    <i name="e_wo_entrp">    -24.02429712 </i>
    <i name="e_0_energy">    -24.02429712 </i>
   </energy>
  </scstep>
  <scstep>
   <time name="diag">    0.04    0.04</time>
   <time name="diis">    0.12    0.12</time>
   <time name="orth">    0.00    0.00</time>
   <time name="total">    0.31    0.32</time>
   <energy>
    <i name="alphaZ">      0.23448562 </i>
    <i name="ewald">    131.26315610 </i>
    <i name="hartreedc">   -286.86739021 </i>
    <i name="XCdc">     24.79650399 </i>
    <i name="pawpsdc">    473.94543249 </i>
    <i name="pawaedc">   -474.73701049 </i>
    <i name="eentropy">     -0.00000000 </i>
    <i name="bandstr">    -89.70122927 </i>
    <i name="atom">    197.04175453 </i>
    <i name="e_fr_energy">    -24.02429723 </i>
    <i name="e_wo_entrp">    -24.02429723 </i>
    <i name="e_0_energy">    -24.02429723 </i>
   </energy>
  </scstep>
  <structure>
   <crystal>
    <varray name="basis" >
     <v>       9.99003851       0.00000000       0.00000000 </v>
     <v>       0.01443610      10.19093932       0.00000000 </v>
     <v>      -0.21557304      -0.28322278      10.14769996 </v>
    </varray>
    <i name="volume">   1033.11578186 </i>
    <varray name="rec_basis" >
     <v>       0.10009971      -0.00014180       0.00212251 </v>
     <v>       0.00000000       0.09812638       0.00273871 </v>
     <v>       0.00000000       0.00000000       0.09854450 </v>
    </varray>
   </crystal>
   <varray name="positions" >
    <v>       0.53769184       0.40735652       0.36168097 </v>
    <v>       0.39421522       0.48059555       0.43795263 </v>
    <v>       0.55147957       0.56301026       0.44425935 </v>
    <v>       0.52801452       0.41815967       0.53626022 </v>
    <v>       0.50361795       0.46746666       0.44526179 </v>
   </varray>
  </structure>
  <varray name="forces" >
   <v>       0.00896422      -0.07688836      -0.12492592 </v>
   <v>       0.14357812      -0.03445416      -0.04414980 </v>
   <v>       0.19259460       0.31047792       0.05643352 </v>
   <v>       0.12607439      -0.10466791       0.29282460 </v>
   <v>      -0.47154119      -0.09431148      -0.18022694 </v>
  </varray>
  <varray name="stress" >
   <v>      -0.64928158       0.20770707       0.14628175 </v>
   <v>       0.20770707       0.01444660      -0.04992329 </v>
   <v>       0.14628175      -0.04992330      -0.01639540 </v>
  </varray>
  <energy>
   <i name="e_fr_energy">    -24.02429723 </i>
   <i name="e_wo_entrp">    -24.02429723 </i>
   <i name="e_0_energy">     -0.00000000 </i>
   <i name="kinetic">      0.01422384 </i>
   <i name="lattice kinetic">      0.00000000 </i>
   <i name="nosepot">      0.00000000 </i>
   <i name="nosekinetic">      0.00000000 </i>
   <i name="total">    -24.01007339 </i>
  </energy>
  <time name="totalsc">    3.55    3.68</time>
 </calculation>
 <calculation>
  <scstep>
   <time name="dav">    0.16    0.16</time>
   <time name="total">    0.34    0.35</time>
   <energy>
    <i name="alphaZ">      0.23448562 </i>
    <i name="ewald">    131.83279321 </i>
    <i name="hartreedc">   -287.35387322 </i>
    <i name="XCdc">     24.82238485 </i>
    <i name="pawpsdc">    477.56617038 </i>
    <i name="pawaedc">   -478.35972709 </i>
    <i name="eentropy">     -0.00000000 </i>
    <i name="bandstr">    -89.80437887 </i>
    <i name="atom">    197.04175453 </i>
    <i name="e_fr_energy">    -24.02039059 </i>
    <i name="e_wo_entrp">    -24.02039059 </i>
    <i name="e_0_energy">    -24.02039059 </i>
   </energy>
  </scstep>
  <scstep>
   <time name="diag">    0.04    0.04</time>
   <time name="diis">    0.17    0.17</time>
   <time name="orth">    0.00    0.00</time>
   <time name="total">    0.39    0.40</time>
   <energy>
    <i name="e_fr_energy">    -24.02039226 </i>
    <i name="e_wo_entrp">    -24.02039226 </i>
    <i name="e_0_energy">    -24.02039226 </i>
   </energy>
  </scstep>
  <scstep>
   <time name="diag">    0.04    0.04</time>
   <time name="diis">    0.14    0.14</time>
   <time name="orth">    0.00    0.00</time>
   <time name="total">    0.36    0.37</time>
   <energy>
    <i name="e_fr_energy">    -24.02039384 </i>
    <i name="e_wo_entrp">    -24.02039384 </i>
    <i name="e_0_energy">    -24.02039384 </i>
   </energy>
  </scstep>
  <scstep>
   <time name="diag">    0.04    0.04</time>
   <time name="diis">    0.14    0.14</time>
   <time name="orth">    0.00    0.00</time>
   <time name="total">    0.34    0.34</time>
   <energy>
    <i name="alphaZ">      0.23448562 </i>
    <i name="ewald">    131.83279321 </i>
    <i name="hartreedc">   -287.36320509 </i>
    <i name="XCdc">     24.82282426 </i>
    <i name="pawpsdc">    477.52393381 </i>
    <i name="pawaedc">   -478.31757559 </i>
    <i name="eentropy">     -0.00000000 </i>
    <i name="bandstr">    -89.79540547 </i>
    <i name="atom">    197.04175453 </i>
    <i name="e_fr_energy">    -24.02039472 </i>
    <i name="e_wo_entrp">    -24.02039472 </i>
    <i name="e_0_energy">    -24.02039472 </i>
   </energy>
  </scstep>
  <structure>
   <crystal>
    <varray name="basis" >
     <v>       9.99003851       0.00000000       0.00000000 </v>
     <v>       0.01443610      10.19093932       0.00000000 </v>
     <v>      -0.21557304      -0.28322278      10.14769996 </v>
    </varray>
    <i name="volume">   1033.11578186 </i>
    <varray name="rec_basis" >
     <v>       0.10009971      -0.00014180       0.00212251 </v>
     <v>       0.00000000       0.09812638       0.00273871 </v>
     <v>       0.00000000       0.00000000       0.09854450 </v>
    </varray>
   </crystal>
   <varray name="positions" >
    <v>       0.53753307       0.40746172       0.36179253 </v>
    <v>       0.39410433       0.48055810       0.43778737 </v>
    <v>       0.55139755       0.56255627       0.44445850 </v>
    <v>       0.52812502       0.41851914       0.53596573 </v>
    <v>       0.50363803       0.46746889       0.44527420 </v>
   </varray>
  </structure>
  <varray name="forces" >
   <v>       0.03721061      -0.11117450      -0.17219288 </v>
   <v>       0.18455168      -0.03544482      -0.02816214 </v>
   <v>       0.25548631       0.46283035       0.03835641 </v>
   <v>       0.13954555      -0.19018490       0.41327815 </v>
   <v>      -0.61720274      -0.12586768      -0.25139869 </v>
  </varray>
  <varray name="stress" >
   <v>      -0.65234986       0.27260859       0.12253266 </v>
   <v>       0.27260860       0.33721887      -0.12657304 </v>
   <v>       0.12253266      -0.12657304       0.21185793 </v>
  </varray>
  <energy>
   <i name="e_fr_energy">    -24.02039472 </i>
   <i name="e_wo_entrp">    -24.02039472 </i>
   <i name="e_0_energy">     -0.00000000 </i>
   <i name="kinetic">      0.01041177 </i>
   <i name="lattice kinetic">      0.00000000 </i>
   <i name="nosepot">      0.00000000 </i>
   <i name="nosekinetic">      0.00000000 </i>
   <i name="total">    -24.00998295 </i>
  </energy>
  <time name="totalsc">    2.07    2.12</time>
 </calculation>
 <calculation>
  <scstep>
   <time name="dav">    0.16    0.16</time>
   <time name="total">    0.33    0.34</time>
   <energy>
    <i name="alphaZ">      0.23448562 </i>
    <i name="ewald">    132.25712549 </i>
    <i name="hartreedc">   -287.73470982 </i>
    <i name="XCdc">     24.84255498 </i>
    <i name="pawpsdc">    480.22487893 </i>
    <i name="pawaedc">   -481.02012887 </i>
    <i name="eentropy">     -0.00000000 </i>
    <i name="bandstr">    -89.86261457 </i>
    <i name="atom">    197.04175453 </i>
    <i name="e_fr_energy">    -24.01665371 </i>
    <i name="e_wo_entrp">    -24.01665371 </i>
    <i name="e_0_energy">    -24.01665371 </i>
   </energy>
  </scstep>
  <scstep>
   <time name="diag">    0.04    0.04</time>
   <time name="diis">    0.16    0.17</time>
   <time name="orth">    0.00    0.00</time>
   <time name="total">    0.38    0.40</time>
   <energy>
    <i name="e_fr_energy">    -24.01665505 </i>
    <i name="e_wo_entrp">    -24.01665505 </i>
    <i name="e_0_energy">    -24.01665505 </i>
   </energy>
  </scstep>
  <scstep>
   <time name="diag">    0.04    0.04</time>
   <time name="diis">    0.13    0.14</time>
   <time name="orth">    0.00    0.00</time>
   <time name="total">    0.35    0.37</time>
   <energy>
    <i name="e_fr_energy">    -24.01665568 </i>
    <i name="e_wo_entrp">    -24.01665568 </i>
    <i name="e_0_energy">    -24.01665568 </i>
   </energy>
  </scstep>
  <scstep>
   <time name="diag">    0.04    0.04</time>
   <time name="diis">    0.13    0.14</time>
   <time name="orth">    0.00    0.00</time>
   <time name="total">    0.35    0.37</time>
   <energy>
    <i name="e_fr_energy">    -24.01665668 </i>
    <i name="e_wo_entrp">    -24.01665668 </i>
    <i name="e_0_energy">    -24.01665668 </i>
   </energy>
  </scstep>
  <scstep>
   <time name="diag">    0.04    0.04</time>
   <time name="diis">    0.12    0.12</time>
   <time name="orth">    0.00    0.00</time>
   <time name="total">    0.44    0.45</time>
   <energy>
    <i name="alphaZ">      0.23448562 </i>
    <i name="ewald">    132.25712549 </i>
    <i name="hartreedc">   -287.73202269 </i>
    <i name="XCdc">     24.84244407 </i>
    <i name="pawpsdc">    480.17103394 </i>
    <i name="pawaedc">   -480.96621199 </i>
    <i name="eentropy">     -0.00000000 </i>
    <i name="bandstr">    -89.86526623 </i>
    <i name="atom">    197.04175453 </i>
    <i name="e_fr_energy">    -24.01665726 </i>
    <i name="e_wo_entrp">    -24.01665726 </i>
    <i name="e_0_energy">    -24.01665726 </i>
   </energy>
  </scstep>
  <structure>
   <crystal>
    <varray name="basis" >
     <v>       9.99003851       0.00000000       0.00000000 </v>
     <v>       0.01443610      10.19093932       0.00000000 </v>
     <v>      -0.21557304      -0.28322278      10.14769996 </v>
    </varray>
    <i name="volume">   1033.11578186 </i>
    <varray name="rec_basis" >
     <v>       0.10009971      -0.00014180       0.00212251 </v>
     <v>       0.00000000       0.09812638       0.00273871 </v>
     <v>       0.00000000       0.00000000       0.09854450 </v>
    </varray>
   </crystal>
   <varray name="positions" >
    <v>       0.53738244       0.40753947       0.36186317 </v>
    <v>       0.39403788       0.48051208       0.43761542 </v>
    <v>       0.55137726       0.56221208       0.44466677 </v>
    <v>       0.52827140       0.41883631       0.53576948 </v>
    <v>       0.50364561       0.46746849       0.44528164 </v>
   </varray>
  </structure>
  <varray name="forces" >
   <v>       0.06183698      -0.13685592      -0.20676021 </v>
   <v>       0.20849527      -0.03371987      -0.01208518 </v>
   <v>       0.29929372       0.57573191       0.02023415 </v>
   <v>       0.14514572      -0.25727809       0.50061222 </v>
   <v>      -0.71520624      -0.14759721      -0.30199565 </v>
  </varray>
  <varray name="stress" >
   <v>      -0.64678891       0.31493039       0.09502135 </v>
   <v>       0.31493039       0.57627226      -0.18704111 </v>
   <v>       0.09502135      -0.18704111       0.37497461 </v>
  </varray>
  <energy>
   <i name="e_fr_energy">    -24.01665726 </i>
   <i name="e_wo_entrp">    -24.01665726 </i>
   <i name="e_0_energy">     -0.00000000 </i>
   <i name="kinetic">      0.00676023 </i>
   <i name="lattice kinetic">      0.00000000 </i>
   <i name="nosepot">      0.00000000 </i>
   <i name="nosekinetic">      0.00000000 </i>
   <i name="total">    -24.00989703 </i>
  </energy>
  <dos>
   <i name="efermi">     -8.27600127 </i>
   <total>
    <array>
     <dimension dim="1">gridpoints</dimension>
     <dimension dim="2">spin</dimension>
     <field>energy</field>
     <field>total</field>
     <field>integrated</field>
     <set>
      <set comment="spin 1">
       <r>   -18.9563     0.0000     0.0000 </r>
       <r>   -18.8842     0.0000     0.0000 </r>
       <r>   -18.8120     0.0000     0.0000 </r>
       <r>   -18.7399     0.0000     0.0000 </r>
       <r>   -18.6677     0.0000     0.0000 </r>
       <r>   -18.5955     0.0000     0.0000 </r>
       <r>   -18.5234     0.0000     0.0000 </r>
       <r>   -18.4512     0.0000     0.0000 </r>
       <r>   -18.3790     0.0000     0.0000 </r>
       <r>   -18.3069     0.0000     0.0000 </r>
       <r>   -18.2347     0.0000     0.0000 </r>
       <r>   -18.1625     0.0000     0.0000 </r>
       <r>   -18.0904     0.0000     0.0000 </r>
       <r>   -18.0182     0.0000     0.0000 </r>
       <r>   -17.9460     0.0000     0.0000 </r>
       <r>   -17.8739     0.0000     0.0000 </r>
       <r>   -17.8017     0.0000     0.0000 </r>
       <r>   -17.7296     0.0000     0.0000 </r>
       <r>   -17.6574     0.0001     0.0000 </r>
       <r>   -17.5852     0.0009     0.0001 </r>
       <r>   -17.5131     0.0088     0.0007 </r>
       <r>   -17.4409     0.0637     0.0053 </r>
       <r>   -17.3687     0.3578     0.0310 </r>
       <r>   -17.2966     1.5596     0.1432 </r>
       <r>   -17.2244     5.2763     0.5226 </r>
       <r>   -17.1522    13.8580     1.5190 </r>
       <r>   -17.0801    28.2622     3.5510 </r>
       <r>   -17.0079    44.7622     6.7692 </r>
       <r>   -16.9358    55.0647    10.7279 </r>
       <r>   -16.8636    52.6176    14.5105 </r>
       <r>   -16.7914    39.0582    17.3182 </r>
       <r>   -16.7193    22.5232    18.9372 </r>
       <r>   -16.6471    10.0899    19.6624 </r>
       <r>   -16.5749     3.5113    19.9148 </r>
       <r>   -16.5028     0.9492    19.9830 </r>
       <r>   -16.4306     0.1993    19.9973 </r>
       <r>   -16.3584     0.0325    19.9997 </r>
       <r>   -16.2863     0.0041    20.0000 </r>
       <r>   -16.2141     0.0004    20.0000 </r>
       <r>   -16.1419     0.0000    20.0000 </r>
       <r>   -16.0698     0.0000    20.0000 </r>
       <r>   -15.9976     0.0000    20.0000 </r>
       <r>   -15.9255     0.0000    20.0000 </r>
       <r>   -15.8533     0.0000    20.0000 </r>
       <r>   -15.7811     0.0000    20.0000 </r>
       <r>   -15.7090     0.0000    20.0000 </r>
       <r>   -15.6368     0.0000    20.0000 </r>
       <r>   -15.5646     0.0000    20.0000 </r>
       <r>   -15.4925     0.0000    20.0000 </r>
       <r>   -15.4203     0.0000    20.0000 </r>
       <r>   -15.3481     0.0000    20.0000 </r>
       <r>   -15.2760     0.0000    20.0000 </r>
       <r>   -15.2038     0.0000    20.0000 </r>
       <r>   -15.1317     0.0000    20.0000 </r>
       <r>   -15.0595     0.0000    20.0000 </r>
       <r>   -14.9873     0.0000    20.0000 </r>
       <r>   -14.9152     0.0000    20.0000 </r>
       <r>   -14.8430     0.0000    20.0000 </r>
       <r>   -14.7708     0.0000    20.0000 </r>
       <r>   -14.6987     0.0000    20.0000 </r>
       <r>   -14.6265     0.0000    20.0000 </r>
       <r>   -14.5543     0.0000    20.0000 </r>
       <r>   -14.4822     0.0000    20.0000 </r>
       <r>   -14.4100     0.0000    20.0000 </r>
       <r>   -14.3378     0.0000    20.0000 </r>
       <r>   -14.2657     0.0000    20.0000 </r>
       <r>   -14.1935     0.0000    20.0000 </r>
       <r>   -14.1214     0.0000    20.0000 </r>
       <r>   -14.0492     0.0000    20.0000 </r>
       <r>   -13.9770     0.0000    20.0000 </r>
       <r>   -13.9049     0.0000    20.0000 </r>
       <r>   -13.8327     0.0000    20.0000 </r>
       <r>   -13.7605     0.0000    20.0000 </r>
       <r>   -13.6884     0.0000    20.0000 </r>
       <r>   -13.6162     0.0000    20.0000 </r>
       <r>   -13.5440     0.0000    20.0000 </r>
       <r>   -13.4719     0.0000    20.0000 </r>
       <r>   -13.3997     0.0000    20.0000 </r>
       <r>   -13.3276     0.0000    20.0000 </r>
       <r>   -13.2554     0.0000    20.0000 </r>
       <r>   -13.1832     0.0000    20.0000 </r>
       <r>   -13.1111     0.0000    20.0000 </r>
       <r>   -13.0389     0.0000    20.0000 </r>
       <r>   -12.9667     0.0000    20.0000 </r>
       <r>   -12.8946     0.0000    20.0000 </r>
       <r>   -12.8224     0.0000    20.0000 </r>
       <r>   -12.7502     0.0000    20.0000 </r>
       <r>   -12.6781     0.0000    20.0000 </r>
       <r>   -12.6059     0.0000    20.0000 </r>
       <r>   -12.5337     0.0000    20.0000 </r>
       <r>   -12.4616     0.0000    20.0000 </r>
       <r>   -12.3894     0.0000    20.0000 </r>
       <r>   -12.3173     0.0000    20.0000 </r>
       <r>   -12.2451     0.0000    20.0000 </r>
       <r>   -12.1729     0.0000    20.0000 </r>
       <r>   -12.1008     0.0000    20.0000 </r>
       <r>   -12.0286     0.0000    20.0000 </r>
       <r>   -11.9564     0.0000    20.0000 </r>
       <r>   -11.8843     0.0000    20.0000 </r>
       <r>   -11.8121     0.0000    20.0000 </r>
       <r>   -11.7399     0.0000    20.0000 </r>
       <r>   -11.6678     0.0000    20.0000 </r>
       <r>   -11.5956     0.0000    20.0000 </r>
       <r>   -11.5235     0.0000    20.0000 </r>
       <r>   -11.4513     0.0000    20.0000 </r>
       <r>   -11.3791     0.0000    20.0000 </r>
       <r>   -11.3070     0.0000    20.0000 </r>
       <r>   -11.2348     0.0000    20.0000 </r>
       <r>   -11.1626     0.0000    20.0000 </r>
       <r>   -11.0905     0.0000    20.0000 </r>
       <r>   -11.0183     0.0000    20.0000 </r>
       <r>   -10.9461     0.0000    20.0000 </r>
       <r>   -10.8740     0.0000    20.0000 </r>
       <r>   -10.8018     0.0000    20.0000 </r>
       <r>   -10.7296     0.0000    20.0000 </r>
       <r>   -10.6575     0.0000    20.0000 </r>
       <r>   -10.5853     0.0000    20.0000 </r>
       <r>   -10.5132     0.0000    20.0000 </r>
       <r>   -10.4410     0.0000    20.0000 </r>
       <r>   -10.3688     0.0000    20.0000 </r>
       <r>   -10.2967     0.0000    20.0000 </r>
       <r>   -10.2245     0.0000    20.0000 </r>
       <r>   -10.1523     0.0000    20.0000 </r>
       <r>   -10.0802     0.0003    20.0000 </r>
       <r>   -10.0080     0.0034    20.0003 </r>
       <r>    -9.9358     0.0290    20.0024 </r>
       <r>    -9.8637     0.1924    20.0162 </r>
       <r>    -9.7915     0.9984    20.0879 </r>
       <r>    -9.7194     4.0613    20.3798 </r>
       <r>    -9.6472    12.9883    21.3133 </r>
       <r>    -9.5750    32.7967    23.6706 </r>
       <r>    -9.5029    65.7877    28.3996 </r>
       <r>    -9.4307   105.7095    35.9990 </r>
       <r>    -9.3585   137.5061    45.8849 </r>
       <r>    -9.2864   146.5056    56.4184 </r>
       <r>    -9.2142   129.1809    65.7063 </r>
       <r>    -9.1420    94.7948    72.5216 </r>
       <r>    -9.0699    57.8111    76.6773 </r>
       <r>    -8.9977    29.0735    78.7669 </r>
       <r>    -8.9255    11.9221    79.6236 </r>
       <r>    -8.8534     3.9409    79.9068 </r>
       <r>    -8.7812     1.0399    79.9814 </r>
       <r>    -8.7091     0.2174    79.9971 </r>
       <r>    -8.6369     0.0358    79.9996 </r>
       <r>    -8.5647     0.0046    80.0000 </r>
       <r>    -8.4926     0.0005    80.0000 </r>
       <r>    -8.4204     0.0000    80.0000 </r>
       <r>    -8.3482     0.0000    80.0000 </r>
       <r>    -8.2761     0.0000    80.0000 </r>
       <r>    -8.2039     0.0000    80.0000 </r>
       <r>    -8.1317     0.0000    80.0000 </r>
       <r>    -8.0596     0.0000    80.0000 </r>
       <r>    -7.9874     0.0000    80.0000 </r>
       <r>    -7.9153     0.0000    80.0000 </r>
       <r>    -7.8431     0.0000    80.0000 </r>
       <r>    -7.7709     0.0000    80.0000 </r>
       <r>    -7.6988     0.0000    80.0000 </r>
       <r>    -7.6266     0.0000    80.0000 </r>
       <r>    -7.5544     0.0000    80.0000 </r>
       <r>    -7.4823     0.0000    80.0000 </r>
       <r>    -7.4101     0.0000    80.0000 </r>
       <r>    -7.3379     0.0000    80.0000 </r>
       <r>    -7.2658     0.0000    80.0000 </r>
       <r>    -7.1936     0.0000    80.0000 </r>
       <r>    -7.1214     0.0000    80.0000 </r>
       <r>    -7.0493     0.0000    80.0000 </r>
       <r>    -6.9771     0.0000    80.0000 </r>
       <r>    -6.9050     0.0000    80.0000 </r>
       <r>    -6.8328     0.0000    80.0000 </r>
       <r>    -6.7606     0.0000    80.0000 </r>
       <r>    -6.6885     0.0000    80.0000 </r>
       <r>    -6.6163     0.0000    80.0000 </r>
       <r>    -6.5441     0.0000    80.0000 </r>
       <r>    -6.4720     0.0000    80.0000 </r>
       <r>    -6.3998     0.0000    80.0000 </r>
       <r>    -6.3276     0.0000    80.0000 </r>
       <r>    -6.2555     0.0000    80.0000 </r>
       <r>    -6.1833     0.0000    80.0000 </r>
       <r>    -6.1112     0.0000    80.0000 </r>
       <r>    -6.0390     0.0000    80.0000 </r>
       <r>    -5.9668     0.0000    80.0000 </r>
       <r>    -5.8947     0.0000    80.0000 </r>
       <r>    -5.8225     0.0000    80.0000 </r>
       <r>    -5.7503     0.0000    80.0000 </r>
       <r>    -5.6782     0.0000    80.0000 </r>
       <r>    -5.6060     0.0000    80.0000 </r>
       <r>    -5.5338     0.0000    80.0000 </r>
       <r>    -5.4617     0.0000    80.0000 </r>
       <r>    -5.3895     0.0000    80.0000 </r>
       <r>    -5.3173     0.0000    80.0000 </r>
       <r>    -5.2452     0.0000    80.0000 </r>
       <r>    -5.1730     0.0000    80.0000 </r>
       <r>    -5.1009     0.0000    80.0000 </r>
       <r>    -5.0287     0.0000    80.0000 </r>
       <r>    -4.9565     0.0000    80.0000 </r>
       <r>    -4.8844     0.0000    80.0000 </r>
       <r>    -4.8122     0.0000    80.0000 </r>
       <r>    -4.7400     0.0000    80.0000 </r>
       <r>    -4.6679     0.0000    80.0000 </r>
       <r>    -4.5957     0.0000    80.0000 </r>
       <r>    -4.5235     0.0000    80.0000 </r>
       <r>    -4.4514     0.0000    80.0000 </r>
       <r>    -4.3792     0.0000    80.0000 </r>
       <r>    -4.3071     0.0000    80.0000 </r>
       <r>    -4.2349     0.0000    80.0000 </r>
       <r>    -4.1627     0.0000    80.0000 </r>
       <r>    -4.0906     0.0000    80.0000 </r>
       <r>    -4.0184     0.0000    80.0000 </r>
       <r>    -3.9462     0.0000    80.0000 </r>
       <r>    -3.8741     0.0000    80.0000 </r>
       <r>    -3.8019     0.0000    80.0000 </r>
       <r>    -3.7297     0.0000    80.0000 </r>
       <r>    -3.6576     0.0000    80.0000 </r>
       <r>    -3.5854     0.0000    80.0000 </r>
       <r>    -3.5132     0.0000    80.0000 </r>
       <r>    -3.4411     0.0000    80.0000 </r>
       <r>    -3.3689     0.0000    80.0000 </r>
       <r>    -3.2968     0.0000    80.0000 </r>
       <r>    -3.2246     0.0000    80.0000 </r>
       <r>    -3.1524     0.0000    80.0000 </r>
       <r>    -3.0803     0.0000    80.0000 </r>
       <r>    -3.0081     0.0000    80.0000 </r>
       <r>    -2.9359     0.0000    80.0000 </r>
[...]
       <r>     0.2393     4.6456   100.4376 </r>
       <r>     0.3114    13.8905   101.4358 </r>
       <r>     0.3836    33.8039   103.8654 </r>
       <r>     0.4558    66.7602   108.6639 </r>
       <r>     0.5279   107.5798   116.3971 </r>
       <r>     0.6001   141.7595   126.5880 </r>
       <r>     0.6723   152.4015   137.5446 </r>
       <r>     0.7444   132.8736   147.0978 </r>
       <r>     0.8166    93.2092   153.7995 </r>
       <r>     0.8888    52.1858   157.5519 </r>
       <r>     0.9609    23.1562   159.2169 </r>
       <r>     1.0331     8.0981   159.7992 </r>
       <r>     1.1052     2.2227   159.9591 </r>
       <r>     1.1774     0.4774   159.9934 </r>
       <r>     1.2496     0.0801   159.9992 </r>
       <r>     1.3217     0.0105   159.9999 </r>
       <r>     1.3939     0.0011   160.0000 </r>
       <r>     1.4661     0.0001   160.0000 </r>
       <r>     1.5382     0.0000   160.0000 </r>
       <r>     1.6104     0.0000   160.0000 </r>
       <r>     1.6826     0.0000   160.0000 </r>
       <r>     1.7547     0.0000   160.0000 </r>
       <r>     1.8269     0.0000   160.0000 </r>
       <r>     1.8991     0.0000   160.0000 </r>
       <r>     1.9712     0.0000   160.0000 </r>
       <r>     2.0434     0.0000   160.0000 </r>
       <r>     2.1155     0.0000   160.0000 </r>
       <r>     2.1877     0.0000   160.0000 </r>
       <r>     2.2599     0.0000   160.0000 </r>
       <r>     2.3320     0.0000   160.0000 </r>
       <r>     2.4042     0.0000   160.0000 </r>
       <r>     2.4764     0.0000   160.0000 </r>
       <r>     2.5485     0.0000   160.0000 </r>
       <r>     2.6207     0.0000   160.0000 </r>
       <r>     2.6929     0.0000   160.0000 </r>
      </set>
     </set>
    </array>
   </total>
  </dos>
  <time name="totalsc">    2.70    2.80</time>
  <eigenvalues>
   <array>
    <dimension dim="1">band</dimension>
    <dimension dim="2">kpoint</dimension>
    <dimension dim="3">spin</dimension>
    <field>eigene</field>
    <field>occ</field>
    <set>
     <set comment="spin 1">
      <set comment="kpoint 1">
       <r>  -16.9637    1.0000 </r>
       <r>   -9.3931    1.0000 </r>
       <r>   -9.3380    1.0000 </r>
       <r>   -9.2560    1.0000 </r>
       <r>   -0.2940    0.0000 </r>
       <r>    0.5368    0.0000 </r>
       <r>    0.6620    0.0000 </r>
       <r>    0.6885    0.0000 </r>
      </set>
      <set comment="kpoint 2">
       <r>  -16.9638    1.0000 </r>
       <r>   -9.3931    1.0000 </r>
       <r>   -9.3379    1.0000 </r>
       <r>   -9.2558    1.0000 </r>
       <r>   -0.2976    0.0000 </r>
       <r>    0.5327    0.0000 </r>
       <r>    0.6660    0.0000 </r>
       <r>    0.7127    0.0000 </r>
      </set>
      <set comment="kpoint 3">
       <r>  -16.9638    1.0000 </r>
       <r>   -9.3931    1.0000 </r>
       <r>   -9.3379    1.0000 </r>
       <r>   -9.2559    1.0000 </r>
       <r>   -0.2989    0.0000 </r>
       <r>    0.5420    0.0000 </r>
       <r>    0.6718    0.0000 </r>
       <r>    0.7065    0.0000 </r>
      </set>
      <set comment="kpoint 4">
       <r>  -16.9637    1.0000 </r>
       <r>   -9.3931    1.0000 </r>
       <r>   -9.3379    1.0000 </r>
       <r>   -9.2558    1.0000 </r>
       <r>   -0.3034    0.0000 </r>
       <r>    0.5562    0.0000 </r>
       <r>    0.6844    0.0000 </r>
       <r>    0.7122    0.0000 </r>
      </set>
     </set>
    </set>
   </array>
  </eigenvalues>
  <separator name="orbital magnetization" >
   <v name="MAGDIPOLOUT">      0.00000000      0.00000000      0.00000000</v>
  </separator>
  <dos>
   <i name="efermi">     -8.26996155 </i>
   <total>
    <array>
     <dimension dim="1">gridpoints</dimension>
     <dimension dim="2">spin</dimension>
     <field>energy</field>
     <field>total</field>
     <field>integrated</field>
     <set>
      <set comment="spin 1">
       <r>   -18.9638     0.0000     0.0000 </r>
       <r>   -18.8915     0.0000     0.0000 </r>
       <r>   -18.8193     0.0000     0.0000 </r>
       <r>   -18.7470     0.0000     0.0000 </r>
       <r>   -18.6748     0.0000     0.0000 </r>
       <r>   -18.6025     0.0000     0.0000 </r>
       <r>   -18.5302     0.0000     0.0000 </r>
       <r>   -18.4580     0.0000     0.0000 </r>
       <r>   -18.3857     0.0000     0.0000 </r>
       <r>   -18.3135     0.0000     0.0000 </r>
       <r>   -18.2412     0.0000     0.0000 </r>
       <r>   -18.1690     0.0000     0.0000 </r>
       <r>   -18.0967     0.0000     0.0000 </r>
       <r>   -18.0245     0.0000     0.0000 </r>
       <r>   -17.9522     0.0000     0.0000 </r>
       <r>   -17.8800     0.0000     0.0000 </r>
       <r>   -17.8077     0.0000     0.0000 </r>
       <r>   -17.7354     0.0000     0.0000 </r>
       <r>   -17.6632     0.0000     0.0000 </r>
       <r>   -17.5909     0.0001     0.0000 </r>
       <r>   -17.5187     0.0011     0.0001 </r>
       <r>   -17.4464     0.0077     0.0006 </r>
       <r>   -17.3742     0.0424     0.0037 </r>
       <r>   -17.3019     0.1812     0.0168 </r>
       <r>   -17.2297     0.5990     0.0601 </r>
       <r>   -17.1574     1.5339     0.1709 </r>
       <r>   -17.0851     3.0417     0.3907 </r>
       <r>   -17.0129     4.6719     0.7283 </r>
       <r>   -16.9406     5.5581     1.1299 </r>
       <r>   -16.8684     5.1219     1.4999 </r>
       <r>   -16.7961     3.6561     1.7641 </r>
       <r>   -16.7239     2.0213     1.9102 </r>
       <r>   -16.6516     0.8655     1.9727 </r>
       <r>   -16.5794     0.2870     1.9934 </r>
       <r>   -16.5071     0.0737     1.9988 </r>
       <r>   -16.4349     0.0146     1.9998 </r>
       <r>   -16.3626     0.0023     2.0000 </r>
       <r>   -16.2903     0.0003     2.0000 </r>
       <r>   -16.2181     0.0000     2.0000 </r>
       <r>   -16.1458     0.0000     2.0000 </r>
       <r>   -16.0736     0.0000     2.0000 </r>
       <r>   -16.0013     0.0000     2.0000 </r>
       <r>   -15.9291     0.0000     2.0000 </r>
       <r>   -15.8568     0.0000     2.0000 </r>
       <r>   -15.7846     0.0000     2.0000 </r>
       <r>   -15.7123     0.0000     2.0000 </r>
       <r>   -15.6400     0.0000     2.0000 </r>
       <r>   -15.5678     0.0000     2.0000 </r>
       <r>   -15.4955     0.0000     2.0000 </r>
       <r>   -15.4233     0.0000     2.0000 </r>
       <r>   -15.3510     0.0000     2.0000 </r>
       <r>   -15.2788     0.0000     2.0000 </r>
       <r>   -15.2065     0.0000     2.0000 </r>
       <r>   -15.1343     0.0000     2.0000 </r>
       <r>   -15.0620     0.0000     2.0000 </r>
       <r>   -14.9898     0.0000     2.0000 </r>
       <r>   -14.9175     0.0000     2.0000 </r>
       <r>   -14.8452     0.0000     2.0000 </r>
       <r>   -14.7730     0.0000     2.0000 </r>
       <r>   -14.7007     0.0000     2.0000 </r>
       <r>   -14.6285     0.0000     2.0000 </r>
       <r>   -14.5562     0.0000     2.0000 </r>
       <r>   -14.4840     0.0000     2.0000 </r>
       <r>   -14.4117     0.0000     2.0000 </r>
       <r>   -14.3395     0.0000     2.0000 </r>
       <r>   -14.2672     0.0000     2.0000 </r>
       <r>   -14.1949     0.0000     2.0000 </r>
       <r>   -14.1227     0.0000     2.0000 </r>
       <r>   -14.0504     0.0000     2.0000 </r>
       <r>   -13.9782     0.0000     2.0000 </r>
       <r>   -13.9059     0.0000     2.0000 </r>
       <r>   -13.8337     0.0000     2.0000 </r>
       <r>   -13.7614     0.0000     2.0000 </r>
       <r>   -13.6892     0.0000     2.0000 </r>
       <r>   -13.6169     0.0000     2.0000 </r>
       <r>   -13.5447     0.0000     2.0000 </r>
       <r>   -13.4724     0.0000     2.0000 </r>
       <r>   -13.4001     0.0000     2.0000 </r>
       <r>   -13.3279     0.0000     2.0000 </r>
       <r>   -13.2556     0.0000     2.0000 </r>
       <r>   -13.1834     0.0000     2.0000 </r>
       <r>   -13.1111     0.0000     2.0000 </r>
       <r>   -13.0389     0.0000     2.0000 </r>
       <r>   -12.9666     0.0000     2.0000 </r>
       <r>   -12.8944     0.0000     2.0000 </r>
       <r>   -12.8221     0.0000     2.0000 </r>
       <r>   -12.7498     0.0000     2.0000 </r>
       <r>   -12.6776     0.0000     2.0000 </r>
       <r>   -12.6053     0.0000     2.0000 </r>
       <r>   -12.5331     0.0000     2.0000 </r>
       <r>   -12.4608     0.0000     2.0000 </r>
       <r>   -12.3886     0.0000     2.0000 </r>
       <r>   -12.3163     0.0000     2.0000 </r>
       <r>   -12.2441     0.0000     2.0000 </r>
       <r>   -12.1718     0.0000     2.0000 </r>
       <r>   -12.0995     0.0000     2.0000 </r>
       <r>   -12.0273     0.0000     2.0000 </r>
       <r>   -11.9550     0.0000     2.0000 </r>
       <r>   -11.8828     0.0000     2.0000 </r>
       <r>   -11.8105     0.0000     2.0000 </r>
       <r>   -11.7383     0.0000     2.0000 </r>
       <r>   -11.6660     0.0000     2.0000 </r>
       <r>   -11.5938     0.0000     2.0000 </r>
       <r>   -11.5215     0.0000     2.0000 </r>
       <r>   -11.4493     0.0000     2.0000 </r>
       <r>   -11.3770     0.0000     2.0000 </r>
       <r>   -11.3047     0.0000     2.0000 </r>
       <r>   -11.2325     0.0000     2.0000 </r>
       <r>   -11.1602     0.0000     2.0000 </r>
       <r>   -11.0880     0.0000     2.0000 </r>
       <r>   -11.0157     0.0000     2.0000 </r>
       <r>   -10.9435     0.0000     2.0000 </r>
       <r>   -10.8712     0.0000     2.0000 </r>
       <r>   -10.7990     0.0000     2.0000 </r>
       <r>   -10.7267     0.0000     2.0000 </r>
       <r>   -10.6544     0.0000     2.0000 </r>
       <r>   -10.5822     0.0000     2.0000 </r>
       <r>   -10.5099     0.0000     2.0000 </r>
       <r>   -10.4377     0.0000     2.0000 </r>
       <r>   -10.3654     0.0000     2.0000 </r>
       <r>   -10.2932     0.0000     2.0000 </r>
       <r>   -10.2209     0.0000     2.0000 </r>
       <r>   -10.1487     0.0000     2.0000 </r>
       <r>   -10.0764     0.0000     2.0000 </r>
       <r>   -10.0042     0.0002     2.0000 </r>
       <r>    -9.9319     0.0021     2.0002 </r>
       <r>    -9.8596     0.0145     2.0012 </r>
       <r>    -9.7874     0.0795     2.0070 </r>
       <r>    -9.7151     0.3410     2.0316 </r>
       <r>    -9.6429     1.1494     2.1147 </r>
       <r>    -9.5706     3.0544     2.3353 </r>
       <r>    -9.4984     6.4269     2.7997 </r>
       <r>    -9.4261    10.7588     3.5771 </r>
       <r>    -9.3539    14.3974     4.6174 </r>
       <r>    -9.2816    15.4649     5.7348 </r>
       <r>    -9.2093    13.3690     6.7008 </r>
       <r>    -9.1371     9.3064     7.3732 </r>
       <r>    -9.0648     5.2076     7.7495 </r>
       <r>    -8.9926     2.3339     7.9181 </r>
       <r>    -8.9203     0.8336     7.9784 </r>
       <r>    -8.8481     0.2361     7.9954 </r>
       <r>    -8.7758     0.0527     7.9992 </r>
       <r>    -8.7036     0.0092     7.9999 </r>
       <r>    -8.6313     0.0013     8.0000 </r>
       <r>    -8.5591     0.0001     8.0000 </r>
       <r>    -8.4868     0.0000     8.0000 </r>
       <r>    -8.4145     0.0000     8.0000 </r>
       <r>    -8.3423     0.0000     8.0000 </r>
       <r>    -8.2700     0.0000     8.0000 </r>
       <r>    -8.1978     0.0000     8.0000 </r>
       <r>    -8.1255     0.0000     8.0000 </r>
       <r>    -8.0533     0.0000     8.0000 </r>
       <r>    -7.9810     0.0000     8.0000 </r>
       <r>    -7.9088     0.0000     8.0000 </r>
       <r>    -7.8365     0.0000     8.0000 </r>
       <r>    -7.7642     0.0000     8.0000 </r>
       <r>    -7.6920     0.0000     8.0000 </r>
       <r>    -7.6197     0.0000     8.0000 </r>
       <r>    -7.5475     0.0000     8.0000 </r>
       <r>    -7.4752     0.0000     8.0000 </r>
       <r>    -7.4030     0.0000     8.0000 </r>
       <r>    -7.3307     0.0000     8.0000 </r>
       <r>    -7.2585     0.0000     8.0000 </r>
       <r>    -7.1862     0.0000     8.0000 </r>
       <r>    -7.1140     0.0000     8.0000 </r>
       <r>    -7.0417     0.0000     8.0000 </r>
       <r>    -6.9694     0.0000     8.0000 </r>
       <r>    -6.8972     0.0000     8.0000 </r>
       <r>    -6.8249     0.0000     8.0000 </r>
       <r>    -6.7527     0.0000     8.0000 </r>
       <r>    -6.6804     0.0000     8.0000 </r>
       <r>    -6.6082     0.0000     8.0000 </r>
       <r>    -6.5359     0.0000     8.0000 </r>
       <r>    -6.4637     0.0000     8.0000 </r>
       <r>    -6.3914     0.0000     8.0000 </r>
       <r>    -6.3191     0.0000     8.0000 </r>
       <r>    -6.2469     0.0000     8.0000 </r>
       <r>    -6.1746     0.0000     8.0000 </r>
       <r>    -6.1024     0.0000     8.0000 </r>
       <r>    -6.0301     0.0000     8.0000 </r>
       <r>    -5.9579     0.0000     8.0000 </r>
       <r>    -5.8856     0.0000     8.0000 </r>
       <r>    -5.8134     0.0000     8.0000 </r>
       <r>    -5.7411     0.0000     8.0000 </r>
       <r>    -5.6689     0.0000     8.0000 </r>
       <r>    -5.5966     0.0000     8.0000 </r>
       <r>    -5.5243     0.0000     8.0000 </r>
       <r>    -5.4521     0.0000     8.0000 </r>
       <r>    -5.3798     0.0000     8.0000 </r>
       <r>    -5.3076     0.0000     8.0000 </r>
       <r>    -5.2353     0.0000     8.0000 </r>
       <r>    -5.1631     0.0000     8.0000 </r>
       <r>    -5.0908     0.0000     8.0000 </r>
       <r>    -5.0186     0.0000     8.0000 </r>
       <r>    -4.9463     0.0000     8.0000 </r>
       <r>    -4.8740     0.0000     8.0000 </r>
       <r>    -4.8018     0.0000     8.0000 </r>
       <r>    -4.7295     0.0000     8.0000 </r>
       <r>    -4.6573     0.0000     8.0000 </r>
       <r>    -4.5850     0.0000     8.0000 </r>
       <r>    -4.5128     0.0000     8.0000 </r>
       <r>    -4.4405     0.0000     8.0000 </r>
       <r>    -4.3683     0.0000     8.0000 </r>
       <r>    -4.2960     0.0000     8.0000 </r>
       <r>    -4.2237     0.0000     8.0000 </r>
       <r>    -4.1515     0.0000     8.0000 </r>
       <r>    -4.0792     0.0000     8.0000 </r>
       <r>    -4.0070     0.0000     8.0000 </r>
       <r>    -3.9347     0.0000     8.0000 </r>
       <r>    -3.8625     0.0000     8.0000 </r>
       <r>    -3.7902     0.0000     8.0000 </r>
       <r>    -3.7180     0.0000     8.0000 </r>
       <r>    -3.6457     0.0000     8.0000 </r>
       <r>    -3.5735     0.0000     8.0000 </r>
       <r>    -3.5012     0.0000     8.0000 </r>
       <r>    -3.4289     0.0000     8.0000 </r>
       <r>    -3.3567     0.0000     8.0000 </r>
       <r>    -3.2844     0.0000     8.0000 </r>
       <r>    -3.2122     0.0000     8.0000 </r>
       <r>    -3.1399     0.0000     8.0000 </r>
       <r>    -3.0677     0.0000     8.0000 </r>
       <r>    -2.9954     0.0000     8.0000 </r>
       <r>    -2.9232     0.0000     8.0000 </r>
       <r>    -2.8509     0.0000     8.0000 </r>
       <r>    -2.7786     0.0000     8.0000 </r>
       <r>    -2.7064     0.0000     8.0000 </r>
       <r>    -2.6341     0.0000     8.0000 </r>
       <r>    -2.5619     0.0000     8.0000 </r>
       <r>    -2.4896     0.0000     8.0000 </r>
       <r>    -2.4174     0.0000     8.0000 </r>
       <r>    -2.3451     0.0000     8.0000 </r>
       <r>    -2.2729     0.0000     8.0000 </r>
       <r>    -2.2006     0.0000     8.0000 </r>
       <r>    -2.1284     0.0000     8.0000 </r>
       <r>    -2.0561     0.0000     8.0000 </r>
       <r>    -1.9838     0.0000     8.0000 </r>
       <r>    -1.9116     0.0000     8.0000 </r>
       <r>    -1.8393     0.0000     8.0000 </r>
       <r>    -1.7671     0.0000     8.0000 </r>
       <r>    -1.6948     0.0000     8.0000 </r>
       <r>    -1.6226     0.0000     8.0000 </r>
       <r>    -1.5503     0.0000     8.0000 </r>
       <r>    -1.4781     0.0000     8.0000 </r>
       <r>    -1.4058     0.0000     8.0000 </r>
       <r>    -1.3335     0.0000     8.0000 </r>
       <r>    -1.2613     0.0000     8.0000 </r>
       <r>    -1.1890     0.0000     8.0000 </r>
       <r>    -1.1168     0.0000     8.0000 </r>
       <r>    -1.0445     0.0000     8.0000 </r>
       <r>    -0.9723     0.0000     8.0000 </r>
       <r>    -0.9000     0.0003     8.0000 </r>
       <r>    -0.8278     0.0022     8.0002 </r>
       <r>    -0.7555     0.0145     8.0012 </r>
       <r>    -0.6833     0.0732     8.0065 </r>
       <r>    -0.6110     0.2854     8.0271 </r>
       <r>    -0.5387     0.8615     8.0894 </r>
       <r>    -0.4665     2.0138     8.2349 </r>
       <r>    -0.3942     3.6465     8.4984 </r>
       <r>    -0.3220     5.1148     8.8679 </r>
       <r>    -0.2497     5.5580     9.2695 </r>
       <r>    -0.1775     4.6789     9.6076 </r>
       <r>    -0.1052     3.0514     9.8281 </r>
       <r>    -0.0330     1.5421     9.9395 </r>
       <r>     0.0393     0.6080     9.9834 </r>
       <r>     0.1116     0.2117     9.9987 </r>
       <r>     0.1838     0.1788    10.0117 </r>
       <r>     0.2561     0.5099    10.0485 </r>
       <r>     0.3283     1.4756    10.1551 </r>
       <r>     0.4006     3.4793    10.4065 </r>
       <r>     0.4728     6.6788    10.8891 </r>
       <r>     0.5451    10.5453    11.6510 </r>
       <r>     0.6173    13.7750    12.6464 </r>
       <r>     0.6896    14.8622    13.7202 </r>
       <r>     0.7618    13.1355    14.6693 </r>
       <r>     0.8341     9.4006    15.3486 </r>
       <r>     0.9064     5.3853    15.7377 </r>
       <r>     0.9786     2.4462    15.9144 </r>
       <r>     1.0509     0.8749    15.9776 </r>
       <r>     1.1231     0.2452    15.9954 </r>
       <r>     1.1954     0.0537    15.9992 </r>
       <r>     1.2676     0.0092    15.9999 </r>
       <r>     1.3399     0.0012    16.0000 </r>
       <r>     1.4121     0.0001    16.0000 </r>
       <r>     1.4844     0.0000    16.0000 </r>
       <r>     1.5567     0.0000    16.0000 </r>
       <r>     1.6289     0.0000    16.0000 </r>
       <r>     1.7012     0.0000    16.0000 </r>
       <r>     1.7734     0.0000    16.0000 </r>
       <r>     1.8457     0.0000    16.0000 </r>
       <r>     1.9179     0.0000    16.0000 </r>
       <r>     1.9902     0.0000    16.0000 </r>
       <r>     2.0624     0.0000    16.0000 </r>
       <r>     2.1347     0.0000    16.0000 </r>
       <r>     2.2069     0.0000    16.0000 </r>
       <r>     2.2792     0.0000    16.0000 </r>
       <r>     2.3515     0.0000    16.0000 </r>
       <r>     2.4237     0.0000    16.0000 </r>
       <r>     2.4960     0.0000    16.0000 </r>
       <r>     2.5682     0.0000    16.0000 </r>
       <r>     2.6405     0.0000    16.0000 </r>
       <r>     2.7127     0.0000    16.0000 </r>
      </set>
     </set>
    </array>
   </total>
  </dos>
 </calculation>
 <structure name="finalpos" >
  <crystal>
   <varray name="basis" >
    <v>       9.99003851       0.00000000       0.00000000 </v>
    <v>       0.01443610      10.19093932       0.00000000 </v>
    <v>      -0.21557304      -0.28322278      10.14769996 </v>
   </varray>
   <i name="volume">   1033.11578186 </i>
   <varray name="rec_basis" >
    <v>       0.10009971      -0.00014180       0.00212251 </v>
    <v>       0.00000000       0.09812638       0.00273871 </v>
    <v>       0.00000000       0.00000000       0.09854450 </v>
   </varray>
  </crystal>
  <varray name="positions" >
   <v>       0.53724574       0.40758345       0.36188466 </v>
   <v>       0.39402172       0.48045799       0.43744059 </v>
   <v>       0.55142915       0.56200429       0.44487985 </v>
   <v>       0.52845548       0.41909589       0.53569223 </v>
   <v>       0.50363869       0.46746502       0.44528309 </v>
  </varray>
  <varray name="velocities" >
   <v>      -0.00013670       0.00004398       0.00002149 </v>
   <v>      -0.00001616      -0.00005409      -0.00017482 </v>
   <v>       0.00005189      -0.00020779       0.00021308 </v>
   <v>       0.00018408       0.00025958      -0.00007725 </v>
   <v>      -0.00000692      -0.00000347       0.00000146 </v>
  </varray>
 </structure>
</modeling>
