unknown system                          
           1
     9.990039    0.000000    0.000000
     0.014436   10.190939    0.000000
    -0.215573   -0.283223   10.147700
   H    C 
   4   1
Direct configuration=     1
   0.53847274  0.40663953  0.36081714
   0.39515444  0.48067775  0.43863455
   0.55237320  0.56598821  0.44344623
   0.52782739  0.41618355  0.53842773
   0.50341592  0.46743610  0.44516418
Direct configuration=     2
   0.53843797  0.40667650  0.36086319
   0.39510163  0.48067705  0.43860695
   0.55232294  0.56583841  0.44347875
   0.52782757  0.41627661  0.53831467
   0.50342738  0.46743780  0.44516935
Direct configuration=     3
   0.53837004  0.40674730  0.36095141
   0.39500127  0.48067460  0.43855280
   0.55222618  0.56554997  0.44354280
   0.52782963  0.41645681  0.53809752
   0.50344928  0.46744112  0.44517926
Direct configuration=     4
   0.53827222  0.40684664  0.36107459
   0.39486310  0.48066943  0.43847351
   0.55209190  0.56514309  0.44363687
   0.52783666  0.41671376  0.53779303
   0.50347952  0.46744577  0.44519312
Direct configuration=     5
   0.53814923  0.40696697  0.36122240
   0.39470007  0.48066028  0.43837105
   0.55193303  0.56464694  0.44375872
   0.52785303  0.41703248  0.53742529
   0.50351520  0.46745128  0.44520982
Direct configuration=     6
   0.53800698  0.40709896  0.36138213
   0.39452729  0.48064575  0.43824801
   0.55176573  0.56409810  0.44390545
   0.52788416  0.41739416  0.53702438
   0.50355276  0.46745708  0.44522793
Direct configuration=     7
   0.53785216  0.40723229  0.36153971
   0.39436057  0.48062454  0.43810739
   0.55160828  0.56353811  0.44407362
   0.52793600  0.41777737  0.53662431
   0.50358833  0.46746247  0.44524582
Direct configuration=     8
   0.53769184  0.40735652  0.36168097
   0.39421522  0.48059555  0.43795263
   0.55147957  0.56301026  0.44425935
   0.52801452  0.41815967  0.53626022
   0.50361795  0.46746666  0.44526179
Direct configuration=     9
   0.53753307  0.40746172  0.36179253
   0.39410433  0.48055810  0.43778737
   0.55139755  0.56255627  0.44445850
   0.52812502  0.41851914  0.53596573
   0.50363803  0.46746889  0.44527420
Direct configuration=    10
   0.53738244  0.40753947  0.36186317
   0.39403788  0.48051208  0.43761542
   0.55137726  0.56221208  0.44466677
   0.52827140  0.41883631  0.53576948
   0.50364561  0.46746849  0.44528164
