   5   5   0   0
  0.2000000E+03  0.1000000E-08  0.1000000E-08  0.1000000E-08  0.5000000E-15
  1.000000000000000E-004
  CAR 
 unknown system                          
      2.69831631    -18.88061987  301     -8.30680065      1.00000000
    -18.881  0.0000E+00  0.0000E+00
    -18.809  0.0000E+00  0.0000E+00
    -18.737  0.0000E+00  0.0000E+00
    -18.665  0.0000E+00  0.0000E+00
    -18.593  0.0000E+00  0.0000E+00
    -18.521  0.0000E+00  0.0000E+00
    -18.449  0.0000E+00  0.0000E+00
    -18.377  0.0000E+00  0.0000E+00
    -18.305  0.0000E+00  0.0000E+00
    -18.233  0.0000E+00  0.0000E+00
    -18.161  0.0000E+00  0.0000E+00
    -18.089  0.0000E+00  0.0000E+00
    -18.017  0.2470E-15  0.1776E-16
    -17.946  0.1385E-13  0.1014E-14
    -17.874  0.5961E-12  0.4389E-13
    -17.802  0.1989E-10  0.1474E-11
    -17.730  0.5139E-09  0.3844E-10
    -17.658  0.1029E-07  0.7785E-09
    -17.586  0.1597E-06  0.1226E-07
    -17.514  0.1920E-05  0.1504E-06
    -17.442  0.1791E-04  0.1439E-05
    -17.370  0.1295E-03  0.1076E-04
    -17.298  0.7267E-03  0.6303E-04
    -17.226  0.3163E-02  0.2906E-03
    -17.154  0.1068E-01  0.1059E-02
    -17.082  0.2800E-01  0.3073E-02
    -17.010  0.5698E-01  0.7172E-02
    -16.939  0.8998E-01  0.1364E-01
    -16.867  0.1103E+00  0.2158E-01
    -16.795  0.1050E+00  0.2913E-01
    -16.723  0.7760E-01  0.3472E-01
    -16.651  0.4451E-01  0.3792E-01
    -16.579  0.1982E-01  0.3934E-01
    -16.507  0.6850E-02  0.3984E-01
    -16.435  0.1837E-02  0.3997E-01
    -16.363  0.3823E-03  0.3999E-01
    -16.291  0.6172E-04  0.4000E-01
    -16.219  0.7729E-05  0.4000E-01
    -16.147  0.7505E-06  0.4000E-01
    -16.075  0.5649E-07  0.4000E-01
    -16.003  0.3296E-08  0.4000E-01
    -15.931  0.1490E-09  0.4000E-01
    -15.860  0.5221E-11  0.4000E-01
    -15.788  0.1417E-12  0.4000E-01
    -15.716  0.2963E-14  0.4000E-01
    -15.644  0.6174E-16  0.4000E-01
    -15.572  0.0000E+00  0.4000E-01
    -15.500  0.0000E+00  0.4000E-01
    -15.428  0.0000E+00  0.4000E-01
    -15.356  0.0000E+00  0.4000E-01
    -15.284  0.0000E+00  0.4000E-01
    -15.212  0.0000E+00  0.4000E-01
    -15.140  0.0000E+00  0.4000E-01
    -15.068  0.0000E+00  0.4000E-01
    -14.996  0.0000E+00  0.4000E-01
    -14.924  0.0000E+00  0.4000E-01
    -14.853  0.0000E+00  0.4000E-01
    -14.781  0.0000E+00  0.4000E-01
    -14.709  0.0000E+00  0.4000E-01
    -14.637  0.0000E+00  0.4000E-01
    -14.565  0.0000E+00  0.4000E-01
    -14.493  0.0000E+00  0.4000E-01
    -14.421  0.0000E+00  0.4000E-01
    -14.349  0.0000E+00  0.4000E-01
    -14.277  0.0000E+00  0.4000E-01
    -14.205  0.0000E+00  0.4000E-01
    -14.133  0.0000E+00  0.4000E-01
    -14.061  0.0000E+00  0.4000E-01
    -13.989  0.0000E+00  0.4000E-01
    -13.917  0.0000E+00  0.4000E-01
    -13.846  0.0000E+00  0.4000E-01
    -13.774  0.0000E+00  0.4000E-01
    -13.702  0.0000E+00  0.4000E-01
    -13.630  0.0000E+00  0.4000E-01
    -13.558  0.0000E+00  0.4000E-01
    -13.486  0.0000E+00  0.4000E-01
    -13.414  0.0000E+00  0.4000E-01
    -13.342  0.0000E+00  0.4000E-01
    -13.270  0.0000E+00  0.4000E-01
    -13.198  0.0000E+00  0.4000E-01
    -13.126  0.0000E+00  0.4000E-01
    -13.054  0.0000E+00  0.4000E-01
    -12.982  0.0000E+00  0.4000E-01
    -12.910  0.0000E+00  0.4000E-01
    -12.839  0.0000E+00  0.4000E-01
    -12.767  0.0000E+00  0.4000E-01
    -12.695  0.0000E+00  0.4000E-01
    -12.623  0.0000E+00  0.4000E-01
    -12.551  0.0000E+00  0.4000E-01
    -12.479  0.0000E+00  0.4000E-01
    -12.407  0.0000E+00  0.4000E-01
    -12.335  0.0000E+00  0.4000E-01
    -12.263  0.0000E+00  0.4000E-01
    -12.191  0.0000E+00  0.4000E-01
    -12.119  0.0000E+00  0.4000E-01
    -12.047  0.0000E+00  0.4000E-01
    -11.975  0.0000E+00  0.4000E-01
    -11.903  0.0000E+00  0.4000E-01
    -11.832  0.0000E+00  0.4000E-01
    -11.760  0.0000E+00  0.4000E-01
    -11.688  0.0000E+00  0.4000E-01
    -11.616  0.0000E+00  0.4000E-01
    -11.544  0.0000E+00  0.4000E-01
    -11.472  0.0000E+00  0.4000E-01
    -11.400  0.0000E+00  0.4000E-01
    -11.328  0.0000E+00  0.4000E-01
    -11.256  0.0000E+00  0.4000E-01
    -11.184  0.0000E+00  0.4000E-01
    -11.112  0.0000E+00  0.4000E-01
    -11.040  0.0000E+00  0.4000E-01
    -10.968  0.0000E+00  0.4000E-01
    -10.896  0.0000E+00  0.4000E-01
    -10.824  0.0000E+00  0.4000E-01
    -10.753  0.0000E+00  0.4000E-01
    -10.681  0.0000E+00  0.4000E-01
    -10.609  0.0000E+00  0.4000E-01
    -10.537  0.0000E+00  0.4000E-01
    -10.465  0.9261E-16  0.4000E-01
    -10.393  0.3890E-14  0.4000E-01
    -10.321  0.1980E-12  0.4000E-01
    -10.249  0.7683E-11  0.4000E-01
    -10.177  0.2310E-09  0.4000E-01
    -10.105  0.5381E-08  0.4000E-01
    -10.033  0.9711E-07  0.4000E-01
     -9.961  0.1359E-05  0.4000E-01
     -9.889  0.1473E-04  0.4000E-01
     -9.817  0.1239E-03  0.4001E-01
     -9.746  0.8082E-03  0.4007E-01
     -9.674  0.4089E-02  0.4036E-01
     -9.602  0.1605E-01  0.4152E-01
     -9.530  0.4890E-01  0.4503E-01
     -9.458  0.1156E+00  0.5335E-01
     -9.386  0.2122E+00  0.6862E-01
     -9.314  0.3024E+00  0.9037E-01
     -9.242  0.3345E+00  0.1144E+00
     -9.170  0.2872E+00  0.1351E+00
     -9.098  0.1915E+00  0.1489E+00
     -9.026  0.9908E-01  0.1560E+00
     -8.954  0.3980E-01  0.1588E+00
     -8.882  0.1241E-01  0.1597E+00
     -8.810  0.3002E-02  0.1600E+00
     -8.739  0.5634E-03  0.1600E+00
     -8.667  0.8203E-04  0.1600E+00
     -8.595  0.9263E-05  0.1600E+00
     -8.523  0.8110E-06  0.1600E+00
     -8.451  0.5505E-07  0.1600E+00
     -8.379  0.2896E-08  0.1600E+00
     -8.307  0.1180E-09  0.1600E+00
     -8.235  0.3727E-11  0.1600E+00
     -8.163  0.9110E-13  0.1600E+00
     -8.091  0.1790E-14  0.1600E+00
     -8.019  0.0000E+00  0.1600E+00
     -7.947  0.0000E+00  0.1600E+00
     -7.875  0.0000E+00  0.1600E+00
     -7.803  0.0000E+00  0.1600E+00
     -7.732  0.0000E+00  0.1600E+00
     -7.660  0.0000E+00  0.1600E+00
     -7.588  0.0000E+00  0.1600E+00
     -7.516  0.0000E+00  0.1600E+00
     -7.444  0.0000E+00  0.1600E+00
     -7.372  0.0000E+00  0.1600E+00
     -7.300  0.0000E+00  0.1600E+00
     -7.228  0.0000E+00  0.1600E+00
     -7.156  0.0000E+00  0.1600E+00
     -7.084  0.0000E+00  0.1600E+00
     -7.012  0.0000E+00  0.1600E+00
     -6.940  0.0000E+00  0.1600E+00
     -6.868  0.0000E+00  0.1600E+00
     -6.796  0.0000E+00  0.1600E+00
     -6.724  0.0000E+00  0.1600E+00
     -6.653  0.0000E+00  0.1600E+00
     -6.581  0.0000E+00  0.1600E+00
     -6.509  0.0000E+00  0.1600E+00
     -6.437  0.0000E+00  0.1600E+00
     -6.365  0.0000E+00  0.1600E+00
     -6.293  0.0000E+00  0.1600E+00
     -6.221  0.0000E+00  0.1600E+00
     -6.149  0.0000E+00  0.1600E+00
     -6.077  0.0000E+00  0.1600E+00
     -6.005  0.0000E+00  0.1600E+00
     -5.933  0.0000E+00  0.1600E+00
     -5.861  0.0000E+00  0.1600E+00
     -5.789  0.0000E+00  0.1600E+00
     -5.717  0.0000E+00  0.1600E+00
     -5.646  0.0000E+00  0.1600E+00
     -5.574  0.0000E+00  0.1600E+00
     -5.502  0.0000E+00  0.1600E+00
     -5.430  0.0000E+00  0.1600E+00
     -5.358  0.0000E+00  0.1600E+00
     -5.286  0.0000E+00  0.1600E+00
     -5.214  0.0000E+00  0.1600E+00
     -5.142  0.0000E+00  0.1600E+00
     -5.070  0.0000E+00  0.1600E+00
     -4.998  0.0000E+00  0.1600E+00
     -4.926  0.0000E+00  0.1600E+00
     -4.854  0.0000E+00  0.1600E+00
     -4.782  0.0000E+00  0.1600E+00
     -4.710  0.0000E+00  0.1600E+00
     -4.639  0.0000E+00  0.1600E+00
     -4.567  0.0000E+00  0.1600E+00
     -4.495  0.0000E+00  0.1600E+00
     -4.423  0.0000E+00  0.1600E+00
     -4.351  0.0000E+00  0.1600E+00
     -4.279  0.0000E+00  0.1600E+00
     -4.207  0.0000E+00  0.1600E+00
     -4.135  0.0000E+00  0.1600E+00
     -4.063  0.0000E+00  0.1600E+00
     -3.991  0.0000E+00  0.1600E+00
     -3.919  0.0000E+00  0.1600E+00
     -3.847  0.0000E+00  0.1600E+00
     -3.775  0.0000E+00  0.1600E+00
     -3.703  0.0000E+00  0.1600E+00
     -3.632  0.0000E+00  0.1600E+00
     -3.560  0.0000E+00  0.1600E+00
     -3.488  0.0000E+00  0.1600E+00
     -3.416  0.0000E+00  0.1600E+00
     -3.344  0.0000E+00  0.1600E+00
     -3.272  0.0000E+00  0.1600E+00
     -3.200  0.0000E+00  0.1600E+00
     -3.128  0.0000E+00  0.1600E+00
     -3.056  0.0000E+00  0.1600E+00
     -2.984  0.0000E+00  0.1600E+00
     -2.912  0.0000E+00  0.1600E+00
     -2.840  0.0000E+00  0.1600E+00
     -2.768  0.0000E+00  0.1600E+00
     -2.696  0.0000E+00  0.1600E+00
     -2.624  0.0000E+00  0.1600E+00
     -2.553  0.0000E+00  0.1600E+00
     -2.481  0.0000E+00  0.1600E+00
     -2.409  0.0000E+00  0.1600E+00
     -2.337  0.0000E+00  0.1600E+00
     -2.265  0.0000E+00  0.1600E+00
     -2.193  0.0000E+00  0.1600E+00
     -2.121  0.0000E+00  0.1600E+00
     -2.049  0.0000E+00  0.1600E+00
     -1.977  0.0000E+00  0.1600E+00
     -1.905  0.0000E+00  0.1600E+00
     -1.833  0.0000E+00  0.1600E+00
     -1.761  0.0000E+00  0.1600E+00
     -1.689  0.0000E+00  0.1600E+00
     -1.617  0.0000E+00  0.1600E+00
     -1.546  0.0000E+00  0.1600E+00
     -1.474  0.6174E-16  0.1600E+00
     -1.402  0.4137E-14  0.1600E+00
     -1.330  0.1925E-12  0.1600E+00
     -1.258  0.6946E-11  0.1600E+00
     -1.186  0.1941E-09  0.1600E+00
     -1.114  0.4205E-08  0.1600E+00
     -1.042  0.7056E-07  0.1600E+00
     -0.970  0.9179E-06  0.1600E+00
     -0.898  0.9258E-05  0.1600E+00
     -0.826  0.7241E-04  0.1600E+00
     -0.754  0.4392E-03  0.1600E+00
     -0.682  0.2067E-02  0.1602E+00
     -0.610  0.7548E-02  0.1607E+00
     -0.539  0.2139E-01  0.1623E+00
     -0.467  0.4704E-01  0.1657E+00
     -0.395  0.8032E-01  0.1714E+00
     -0.323  0.1065E+00  0.1791E+00
     -0.251  0.1095E+00  0.1870E+00
     -0.179  0.8750E-01  0.1933E+00
     -0.107  0.5426E-01  0.1972E+00
     -0.035  0.2612E-01  0.1990E+00
      0.037  0.9810E-02  0.1997E+00
      0.109  0.3167E-02  0.2000E+00
      0.181  0.2373E-02  0.2001E+00
      0.253  0.7157E-02  0.2007E+00
      0.325  0.2272E-01  0.2023E+00
      0.397  0.5851E-01  0.2065E+00
      0.468  0.1215E+00  0.2152E+00
      0.540  0.2043E+00  0.2299E+00
      0.612  0.2790E+00  0.2500E+00
      0.684  0.3090E+00  0.2722E+00
      0.756  0.2764E+00  0.2921E+00
      0.828  0.1983E+00  0.3064E+00
      0.900  0.1134E+00  0.3145E+00
      0.972  0.5133E-01  0.3182E+00
      1.044  0.1830E-01  0.3195E+00
      1.116  0.5116E-02  0.3199E+00
      1.188  0.1119E-02  0.3200E+00
      1.260  0.1909E-03  0.3200E+00
      1.332  0.2537E-04  0.3200E+00
      1.404  0.2624E-05  0.3200E+00
      1.476  0.2111E-06  0.3200E+00
      1.547  0.1319E-07  0.3200E+00
      1.619  0.6402E-09  0.3200E+00
      1.691  0.2412E-10  0.3200E+00
      1.763  0.7051E-12  0.3200E+00
      1.835  0.1593E-13  0.3200E+00
      1.907  0.3087E-15  0.3200E+00
      1.979  0.0000E+00  0.3200E+00
      2.051  0.0000E+00  0.3200E+00
      2.123  0.0000E+00  0.3200E+00
      2.195  0.0000E+00  0.3200E+00
      2.267  0.0000E+00  0.3200E+00
      2.339  0.0000E+00  0.3200E+00
      2.411  0.0000E+00  0.3200E+00
      2.483  0.0000E+00  0.3200E+00
      2.554  0.0000E+00  0.3200E+00
      2.626  0.0000E+00  0.3200E+00
      2.698  0.0000E+00  0.3200E+00
