 running on   16 total cores
 distrk:  each k-point on   16 cores,    1 groups
 distr:  one band on    4 cores,    4 groups
 using from now: INCAR     
 vasp.5.4.4.18Apr17-6-g9f103f2a35 (build Nov 25 2021 15:25:00) complex          
  
 POSCAR found type information on POSCAR  H  C 
 POSCAR found :  2 types and       5 ions
 scaLAPACK will be used
 LDA part: xc-table for Pade appr. of Perdew
 POSCAR found type information on POSCAR  H  C 
 POSCAR found :  2 types and       5 ions
 generate k-points for:    2    2    2
 POSCAR, INCAR and KPOINTS ok, starting setup
 FFT: planning ...
 WAVECAR not read
 entering main loop
       N       E                     dE             d eps       ncg     rms          rms(c)
DAV:   1     0.104613686476E+02    0.10461E+02   -0.20703E+03    96   0.426E+02
DAV:   2    -0.240281188196E+02   -0.34489E+02   -0.34489E+02    64   0.113E+02
DAV:   3    -0.274232428858E+02   -0.33951E+01   -0.33951E+01    64   0.422E+01
DAV:   4    -0.275550884231E+02   -0.13185E+00   -0.13185E+00   128   0.847E+00
DAV:   5    -0.275551241083E+02   -0.35685E-04   -0.35685E-04   104   0.161E-01    0.871E+00
RMM:   6    -0.246653028557E+02    0.28898E+01   -0.53887E+00    64   0.142E+01    0.429E+00
RMM:   7    -0.241726621891E+02    0.49264E+00   -0.12265E+00    64   0.640E+00    0.228E+00
RMM:   8    -0.240264617393E+02    0.14620E+00   -0.16142E-01    64   0.287E+00    0.226E-01
RMM:   9    -0.240208013220E+02    0.56604E-02   -0.11036E-02    64   0.696E-01    0.196E-01
RMM:  10    -0.240146743475E+02    0.61270E-02   -0.24762E-02    64   0.858E-01    0.281E-01
RMM:  11    -0.240152624265E+02   -0.58808E-03   -0.76149E-03    64   0.544E-01    0.737E-02
RMM:  12    -0.240251385251E+02   -0.98761E-02   -0.41269E-03    64   0.397E-01    0.131E-01
RMM:  13    -0.240255320099E+02   -0.39348E-03   -0.86236E-04    64   0.164E-01    0.600E-02
RMM:  14    -0.240283811093E+02   -0.28491E-02   -0.21174E-03    64   0.282E-01    0.483E-02
RMM:  15    -0.240285489676E+02   -0.16786E-03   -0.13600E-04    64   0.725E-02    0.176E-02
RMM:  16    -0.240287646132E+02   -0.21565E-03   -0.24004E-04    64   0.943E-02    0.186E-02
RMM:  17    -0.240287705235E+02   -0.59103E-05   -0.31125E-05    64   0.327E-02    0.658E-03
RMM:  18    -0.240287872757E+02   -0.16752E-04   -0.18987E-05    64   0.276E-02    0.337E-03
RMM:  19    -0.240287887198E+02   -0.14440E-05   -0.43385E-07    48   0.573E-03    0.307E-03
RMM:  20    -0.240287900368E+02   -0.13171E-05   -0.17250E-06    48   0.812E-03    0.169E-04
RMM:  21    -0.240287901972E+02   -0.16031E-06   -0.27588E-07    48   0.450E-03
   1 F= -.24028790E+02 E0= -.24028790E+02  d E =-.240288E+02
 curvature:   0.00 expect dE= 0.000E+00 dE for cont linesearch  0.000E+00
 trial: gam= 0.00000 g(F)=  0.876E-06 g(S)=  0.000E+00 ort = 0.000E+00 (trialstep = 0.100E+01)
 search vector abs. value=  0.876E-06
 reached required accuracy - stopping structural energy minimisation
