unknown system                          
           1
    10.000000    0.000000    0.000000
     0.000000   10.000000    0.000000
     0.000000    0.000000   10.000000
   H    C 
   4   1
Direct configuration=     1
   0.53815400  0.40686100  0.36057300
   0.39454000  0.48032100  0.43846900
   0.55209200  0.56545000  0.44270900
   0.52818500  0.41641500  0.53918300
   0.50325100  0.46725500  0.44523200
