   5   5   0   0
  0.2067751E+03  0.1024087E-08  0.1021181E-08  0.9889236E-09  0.5000000E-15
  1.000000000000000E-004
  CAR 
 unknown system                          
      2.70132762    -18.97023015  301     -8.27878723      1.00000000
    -18.970  0.0000E+00  0.0000E+00
    -18.898  0.0000E+00  0.0000E+00
    -18.826  0.0000E+00  0.0000E+00
    -18.754  0.0000E+00  0.0000E+00
    -18.681  0.0000E+00  0.0000E+00
    -18.609  0.0000E+00  0.0000E+00
    -18.537  0.0000E+00  0.0000E+00
    -18.465  0.0000E+00  0.0000E+00
    -18.392  0.0000E+00  0.0000E+00
    -18.320  0.0000E+00  0.0000E+00
    -18.248  0.0000E+00  0.0000E+00
    -18.176  0.0000E+00  0.0000E+00
    -18.103  0.1266E-13  0.9104E-15
    -18.031  0.6829E-12  0.5003E-13
    -17.959  0.2942E-10  0.2166E-11
    -17.887  0.9813E-09  0.7275E-10
    -17.814  0.2536E-07  0.1897E-08
    -17.742  0.5077E-06  0.3842E-07
    -17.670  0.7879E-05  0.6051E-06
    -17.598  0.9478E-04  0.7422E-05
    -17.525  0.8841E-03  0.7101E-04
    -17.453  0.6396E-02  0.5310E-03
    -17.381  0.3590E-01  0.3113E-02
    -17.309  0.1564E+00  0.1436E-01
    -17.237  0.5287E+00  0.5238E-01
    -17.164  0.1388E+01  0.1522E+00
    -17.092  0.2828E+01  0.3555E+00
    -17.020  0.4477E+01  0.6775E+00
    -16.948  0.5505E+01  0.1073E+01
    -16.875  0.5259E+01  0.1451E+01
    -16.803  0.3903E+01  0.1732E+01
    -16.731  0.2251E+01  0.1894E+01
    -16.659  0.1009E+01  0.1966E+01
    -16.586  0.3512E+00  0.1991E+01
    -16.514  0.9502E-01  0.1998E+01
    -16.442  0.1997E-01  0.2000E+01
    -16.370  0.3262E-02  0.2000E+01
    -16.297  0.4140E-03  0.2000E+01
    -16.225  0.4080E-04  0.2000E+01
    -16.153  0.3124E-05  0.2000E+01
    -16.081  0.1858E-06  0.2000E+01
    -16.008  0.8581E-08  0.2000E+01
    -15.936  0.3077E-09  0.2000E+01
    -15.864  0.8570E-11  0.2000E+01
    -15.792  0.1858E-12  0.2000E+01
    -15.719  0.3097E-14  0.2000E+01
    -15.647  0.0000E+00  0.2000E+01
    -15.575  0.0000E+00  0.2000E+01
    -15.503  0.0000E+00  0.2000E+01
    -15.431  0.0000E+00  0.2000E+01
    -15.358  0.0000E+00  0.2000E+01
    -15.286  0.0000E+00  0.2000E+01
    -15.214  0.0000E+00  0.2000E+01
    -15.142  0.0000E+00  0.2000E+01
    -15.069  0.0000E+00  0.2000E+01
    -14.997  0.0000E+00  0.2000E+01
    -14.925  0.0000E+00  0.2000E+01
    -14.853  0.0000E+00  0.2000E+01
    -14.780  0.0000E+00  0.2000E+01
    -14.708  0.0000E+00  0.2000E+01
    -14.636  0.0000E+00  0.2000E+01
    -14.564  0.0000E+00  0.2000E+01
    -14.491  0.0000E+00  0.2000E+01
    -14.419  0.0000E+00  0.2000E+01
    -14.347  0.0000E+00  0.2000E+01
    -14.275  0.0000E+00  0.2000E+01
    -14.202  0.0000E+00  0.2000E+01
    -14.130  0.0000E+00  0.2000E+01
    -14.058  0.0000E+00  0.2000E+01
    -13.986  0.0000E+00  0.2000E+01
    -13.914  0.0000E+00  0.2000E+01
    -13.841  0.0000E+00  0.2000E+01
    -13.769  0.0000E+00  0.2000E+01
    -13.697  0.0000E+00  0.2000E+01
    -13.625  0.0000E+00  0.2000E+01
    -13.552  0.0000E+00  0.2000E+01
    -13.480  0.0000E+00  0.2000E+01
    -13.408  0.0000E+00  0.2000E+01
    -13.336  0.0000E+00  0.2000E+01
    -13.263  0.0000E+00  0.2000E+01
    -13.191  0.0000E+00  0.2000E+01
    -13.119  0.0000E+00  0.2000E+01
    -13.047  0.0000E+00  0.2000E+01
    -12.974  0.0000E+00  0.2000E+01
    -12.902  0.0000E+00  0.2000E+01
    -12.830  0.0000E+00  0.2000E+01
    -12.758  0.0000E+00  0.2000E+01
    -12.685  0.0000E+00  0.2000E+01
    -12.613  0.0000E+00  0.2000E+01
    -12.541  0.0000E+00  0.2000E+01
    -12.469  0.0000E+00  0.2000E+01
    -12.397  0.0000E+00  0.2000E+01
    -12.324  0.0000E+00  0.2000E+01
    -12.252  0.0000E+00  0.2000E+01
    -12.180  0.0000E+00  0.2000E+01
    -12.108  0.0000E+00  0.2000E+01
    -12.035  0.0000E+00  0.2000E+01
    -11.963  0.0000E+00  0.2000E+01
    -11.891  0.0000E+00  0.2000E+01
    -11.819  0.0000E+00  0.2000E+01
    -11.746  0.0000E+00  0.2000E+01
    -11.674  0.0000E+00  0.2000E+01
    -11.602  0.0000E+00  0.2000E+01
    -11.530  0.0000E+00  0.2000E+01
    -11.457  0.0000E+00  0.2000E+01
    -11.385  0.0000E+00  0.2000E+01
    -11.313  0.0000E+00  0.2000E+01
    -11.241  0.0000E+00  0.2000E+01
    -11.168  0.0000E+00  0.2000E+01
    -11.096  0.0000E+00  0.2000E+01
    -11.024  0.0000E+00  0.2000E+01
    -10.952  0.0000E+00  0.2000E+01
    -10.880  0.0000E+00  0.2000E+01
    -10.807  0.0000E+00  0.2000E+01
    -10.735  0.0000E+00  0.2000E+01
    -10.663  0.0000E+00  0.2000E+01
    -10.591  0.1230E-14  0.2000E+01
    -10.518  0.7851E-13  0.2000E+01
    -10.446  0.3765E-11  0.2000E+01
    -10.374  0.1405E-09  0.2000E+01
    -10.302  0.4078E-08  0.2000E+01
    -10.229  0.9228E-07  0.2000E+01
    -10.157  0.1631E-05  0.2000E+01
    -10.085  0.2257E-04  0.2000E+01
    -10.013  0.2451E-03  0.2000E+01
     -9.940  0.2095E-02  0.2000E+01
     -9.868  0.1413E-01  0.2001E+01
     -9.796  0.7543E-01  0.2007E+01
     -9.724  0.3195E+00  0.2030E+01
     -9.651  0.1076E+01  0.2107E+01
     -9.579  0.2887E+01  0.2315E+01
     -9.507  0.6178E+01  0.2759E+01
     -9.435  0.1055E+02  0.3518E+01
     -9.363  0.1439E+02  0.4552E+01
     -9.290  0.1570E+02  0.5681E+01
     -9.218  0.1370E+02  0.6666E+01
     -9.146  0.9579E+01  0.7354E+01
     -9.074  0.5369E+01  0.7741E+01
     -9.001  0.2414E+01  0.7914E+01
     -8.929  0.8707E+00  0.7977E+01
     -8.857  0.2515E+00  0.7995E+01
     -8.785  0.5808E-01  0.7999E+01
     -8.712  0.1069E-01  0.8000E+01
     -8.640  0.1561E-02  0.8000E+01
     -8.568  0.1804E-03  0.8000E+01
     -8.496  0.1643E-04  0.8000E+01
     -8.423  0.1175E-05  0.8000E+01
     -8.351  0.6576E-07  0.8000E+01
     -8.279  0.2876E-08  0.8000E+01
     -8.207  0.9801E-10  0.8000E+01
     -8.134  0.2599E-11  0.8000E+01
     -8.062  0.5306E-13  0.8000E+01
     -7.990  0.9223E-15  0.8000E+01
     -7.918  0.0000E+00  0.8000E+01
     -7.845  0.0000E+00  0.8000E+01
     -7.773  0.0000E+00  0.8000E+01
     -7.701  0.0000E+00  0.8000E+01
     -7.629  0.0000E+00  0.8000E+01
     -7.557  0.0000E+00  0.8000E+01
     -7.484  0.0000E+00  0.8000E+01
     -7.412  0.0000E+00  0.8000E+01
     -7.340  0.0000E+00  0.8000E+01
     -7.268  0.0000E+00  0.8000E+01
     -7.195  0.0000E+00  0.8000E+01
     -7.123  0.0000E+00  0.8000E+01
     -7.051  0.0000E+00  0.8000E+01
     -6.979  0.0000E+00  0.8000E+01
     -6.906  0.0000E+00  0.8000E+01
     -6.834  0.0000E+00  0.8000E+01
     -6.762  0.0000E+00  0.8000E+01
     -6.690  0.0000E+00  0.8000E+01
     -6.617  0.0000E+00  0.8000E+01
     -6.545  0.0000E+00  0.8000E+01
     -6.473  0.0000E+00  0.8000E+01
     -6.401  0.0000E+00  0.8000E+01
     -6.328  0.0000E+00  0.8000E+01
     -6.256  0.0000E+00  0.8000E+01
     -6.184  0.0000E+00  0.8000E+01
     -6.112  0.0000E+00  0.8000E+01
     -6.040  0.0000E+00  0.8000E+01
     -5.967  0.0000E+00  0.8000E+01
     -5.895  0.0000E+00  0.8000E+01
     -5.823  0.0000E+00  0.8000E+01
     -5.751  0.0000E+00  0.8000E+01
     -5.678  0.0000E+00  0.8000E+01
     -5.606  0.0000E+00  0.8000E+01
     -5.534  0.0000E+00  0.8000E+01
     -5.462  0.0000E+00  0.8000E+01
     -5.389  0.0000E+00  0.8000E+01
     -5.317  0.0000E+00  0.8000E+01
     -5.245  0.0000E+00  0.8000E+01
     -5.173  0.0000E+00  0.8000E+01
     -5.100  0.0000E+00  0.8000E+01
     -5.028  0.0000E+00  0.8000E+01
     -4.956  0.0000E+00  0.8000E+01
     -4.884  0.0000E+00  0.8000E+01
     -4.811  0.0000E+00  0.8000E+01
     -4.739  0.0000E+00  0.8000E+01
     -4.667  0.0000E+00  0.8000E+01
     -4.595  0.0000E+00  0.8000E+01
     -4.523  0.0000E+00  0.8000E+01
     -4.450  0.0000E+00  0.8000E+01
     -4.378  0.0000E+00  0.8000E+01
     -4.306  0.0000E+00  0.8000E+01
     -4.234  0.0000E+00  0.8000E+01
     -4.161  0.0000E+00  0.8000E+01
     -4.089  0.0000E+00  0.8000E+01
     -4.017  0.0000E+00  0.8000E+01
     -3.945  0.0000E+00  0.8000E+01
     -3.872  0.0000E+00  0.8000E+01
     -3.800  0.0000E+00  0.8000E+01
     -3.728  0.0000E+00  0.8000E+01
     -3.656  0.0000E+00  0.8000E+01
     -3.583  0.0000E+00  0.8000E+01
     -3.511  0.0000E+00  0.8000E+01
     -3.439  0.0000E+00  0.8000E+01
     -3.367  0.0000E+00  0.8000E+01
     -3.294  0.0000E+00  0.8000E+01
     -3.222  0.0000E+00  0.8000E+01
     -3.150  0.0000E+00  0.8000E+01
     -3.078  0.0000E+00  0.8000E+01
     -3.006  0.0000E+00  0.8000E+01
     -2.933  0.0000E+00  0.8000E+01
     -2.861  0.0000E+00  0.8000E+01
     -2.789  0.0000E+00  0.8000E+01
     -2.717  0.0000E+00  0.8000E+01
     -2.644  0.0000E+00  0.8000E+01
     -2.572  0.0000E+00  0.8000E+01
     -2.500  0.0000E+00  0.8000E+01
     -2.428  0.0000E+00  0.8000E+01
     -2.355  0.0000E+00  0.8000E+01
     -2.283  0.0000E+00  0.8000E+01
     -2.211  0.0000E+00  0.8000E+01
     -2.139  0.0000E+00  0.8000E+01
     -2.066  0.0000E+00  0.8000E+01
     -1.994  0.0000E+00  0.8000E+01
     -1.922  0.0000E+00  0.8000E+01
     -1.850  0.0000E+00  0.8000E+01
     -1.777  0.0000E+00  0.8000E+01
     -1.705  0.0000E+00  0.8000E+01
     -1.633  0.0000E+00  0.8000E+01
     -1.561  0.0000E+00  0.8000E+01
     -1.489  0.8979E-14  0.8000E+01
     -1.416  0.4770E-12  0.8000E+01
     -1.344  0.2033E-10  0.8000E+01
     -1.272  0.6742E-09  0.8000E+01
     -1.200  0.1740E-07  0.8000E+01
     -1.127  0.3497E-06  0.8000E+01
     -1.055  0.5473E-05  0.8000E+01
     -0.983  0.6673E-04  0.8000E+01
     -0.911  0.6338E-03  0.8000E+01
     -0.838  0.4692E-02  0.8000E+01
     -0.766  0.2707E-01  0.8002E+01
     -0.694  0.1218E+00  0.8011E+01
     -0.622  0.4269E+00  0.8042E+01
     -0.549  0.1167E+01  0.8126E+01
     -0.477  0.2487E+01  0.8304E+01
     -0.405  0.4131E+01  0.8601E+01
     -0.333  0.5349E+01  0.8986E+01
     -0.260  0.5397E+01  0.9374E+01
     -0.188  0.4243E+01  0.9679E+01
     -0.116  0.2598E+01  0.9866E+01
     -0.044  0.1239E+01  0.9955E+01
      0.029  0.4644E+00  0.9988E+01
      0.101  0.1602E+00  0.1000E+02
      0.173  0.1595E+00  0.1001E+02
      0.245  0.4914E+00  0.1005E+02
      0.317  0.1455E+01  0.1015E+02
      0.390  0.3502E+01  0.1040E+02
      0.462  0.6839E+01  0.1089E+02
      0.534  0.1090E+02  0.1168E+02
      0.606  0.1423E+02  0.1270E+02
      0.679  0.1517E+02  0.1379E+02
      0.751  0.1313E+02  0.1474E+02
      0.823  0.9159E+01  0.1539E+02
      0.895  0.5105E+01  0.1576E+02
      0.968  0.2257E+01  0.1592E+02
      1.040  0.7875E+00  0.1598E+02
      1.112  0.2158E+00  0.1600E+02
      1.184  0.4631E-01  0.1600E+02
      1.257  0.7766E-02  0.1600E+02
      1.329  0.1016E-02  0.1600E+02
      1.401  0.1036E-03  0.1600E+02
      1.473  0.8217E-05  0.1600E+02
      1.546  0.5072E-06  0.1600E+02
      1.618  0.2434E-07  0.1600E+02
      1.690  0.9074E-09  0.1600E+02
      1.762  0.2627E-10  0.1600E+02
      1.834  0.5911E-12  0.1600E+02
      1.907  0.9570E-14  0.1600E+02
      1.979  0.0000E+00  0.1600E+02
      2.051  0.0000E+00  0.1600E+02
      2.123  0.0000E+00  0.1600E+02
      2.196  0.0000E+00  0.1600E+02
      2.268  0.0000E+00  0.1600E+02
      2.340  0.0000E+00  0.1600E+02
      2.412  0.0000E+00  0.1600E+02
      2.485  0.0000E+00  0.1600E+02
      2.557  0.0000E+00  0.1600E+02
      2.629  0.0000E+00  0.1600E+02
      2.701  0.0000E+00  0.1600E+02
      2.69408511    -18.97985586  301     -8.28723721      1.00000000
    -18.980  0.0000E+00  0.0000E+00
    -18.908  0.0000E+00  0.0000E+00
    -18.835  0.0000E+00  0.0000E+00
    -18.763  0.0000E+00  0.0000E+00
    -18.691  0.0000E+00  0.0000E+00
    -18.619  0.0000E+00  0.0000E+00
    -18.546  0.0000E+00  0.0000E+00
    -18.474  0.0000E+00  0.0000E+00
    -18.402  0.0000E+00  0.0000E+00
    -18.330  0.0000E+00  0.0000E+00
    -18.257  0.0000E+00  0.0000E+00
    -18.185  0.0000E+00  0.0000E+00
    -18.113  0.1537E-14  0.1110E-15
    -18.041  0.8602E-13  0.6325E-14
    -17.968  0.3710E-11  0.2744E-12
    -17.896  0.1237E-09  0.9208E-11
    -17.824  0.3186E-08  0.2394E-09
    -17.752  0.6346E-07  0.4824E-08
    -17.679  0.9773E-06  0.7543E-07
    -17.607  0.1164E-04  0.9166E-06
    -17.535  0.1073E-03  0.8669E-05
    -17.463  0.7653E-03  0.6396E-04
    -17.390  0.4224E-02  0.3691E-03
    -17.318  0.1805E-01  0.1673E-02
    -17.246  0.5972E-01  0.5988E-02
    -17.174  0.1530E+00  0.1704E-01
    -17.101  0.3037E+00  0.3898E-01
    -17.029  0.4667E+00  0.7270E-01
    -16.957  0.5557E+00  0.1129E+00
    -16.885  0.5126E+00  0.1499E+00
    -16.812  0.3662E+00  0.1763E+00
    -16.740  0.2027E+00  0.1910E+00
    -16.668  0.8687E-01  0.1973E+00
    -16.596  0.2884E-01  0.1993E+00
    -16.523  0.7412E-02  0.1999E+00
    -16.451  0.1475E-02  0.2000E+00
    -16.379  0.2272E-03  0.2000E+00
    -16.307  0.2708E-04  0.2000E+00
    -16.234  0.2498E-05  0.2000E+00
    -16.162  0.1782E-06  0.2000E+00
    -16.090  0.9831E-08  0.2000E+00
    -16.018  0.4194E-09  0.2000E+00
    -15.946  0.1383E-10  0.2000E+00
    -15.873  0.3522E-12  0.2000E+00
    -15.801  0.7069E-14  0.2000E+00
    -15.729  0.0000E+00  0.2000E+00
    -15.657  0.0000E+00  0.2000E+00
    -15.584  0.0000E+00  0.2000E+00
    -15.512  0.0000E+00  0.2000E+00
    -15.440  0.0000E+00  0.2000E+00
    -15.368  0.0000E+00  0.2000E+00
    -15.295  0.0000E+00  0.2000E+00
    -15.223  0.0000E+00  0.2000E+00
    -15.151  0.0000E+00  0.2000E+00
    -15.079  0.0000E+00  0.2000E+00
    -15.006  0.0000E+00  0.2000E+00
    -14.934  0.0000E+00  0.2000E+00
    -14.862  0.0000E+00  0.2000E+00
    -14.790  0.0000E+00  0.2000E+00
    -14.717  0.0000E+00  0.2000E+00
    -14.645  0.0000E+00  0.2000E+00
    -14.573  0.0000E+00  0.2000E+00
    -14.501  0.0000E+00  0.2000E+00
    -14.428  0.0000E+00  0.2000E+00
    -14.356  0.0000E+00  0.2000E+00
    -14.284  0.0000E+00  0.2000E+00
    -14.212  0.0000E+00  0.2000E+00
    -14.139  0.0000E+00  0.2000E+00
    -14.067  0.0000E+00  0.2000E+00
    -13.995  0.0000E+00  0.2000E+00
    -13.923  0.0000E+00  0.2000E+00
    -13.850  0.0000E+00  0.2000E+00
    -13.778  0.0000E+00  0.2000E+00
    -13.706  0.0000E+00  0.2000E+00
    -13.634  0.0000E+00  0.2000E+00
    -13.561  0.0000E+00  0.2000E+00
    -13.489  0.0000E+00  0.2000E+00
    -13.417  0.0000E+00  0.2000E+00
    -13.345  0.0000E+00  0.2000E+00
    -13.272  0.0000E+00  0.2000E+00
    -13.200  0.0000E+00  0.2000E+00
    -13.128  0.0000E+00  0.2000E+00
    -13.056  0.0000E+00  0.2000E+00
    -12.983  0.0000E+00  0.2000E+00
    -12.911  0.0000E+00  0.2000E+00
    -12.839  0.0000E+00  0.2000E+00
    -12.767  0.0000E+00  0.2000E+00
    -12.694  0.0000E+00  0.2000E+00
    -12.622  0.0000E+00  0.2000E+00
    -12.550  0.0000E+00  0.2000E+00
    -12.478  0.0000E+00  0.2000E+00
    -12.405  0.0000E+00  0.2000E+00
    -12.333  0.0000E+00  0.2000E+00
    -12.261  0.0000E+00  0.2000E+00
    -12.189  0.0000E+00  0.2000E+00
    -12.116  0.0000E+00  0.2000E+00
    -12.044  0.0000E+00  0.2000E+00
    -11.972  0.0000E+00  0.2000E+00
    -11.900  0.0000E+00  0.2000E+00
    -11.827  0.0000E+00  0.2000E+00
    -11.755  0.0000E+00  0.2000E+00
    -11.683  0.0000E+00  0.2000E+00
    -11.611  0.0000E+00  0.2000E+00
    -11.538  0.0000E+00  0.2000E+00
    -11.466  0.0000E+00  0.2000E+00
    -11.394  0.0000E+00  0.2000E+00
    -11.322  0.0000E+00  0.2000E+00
    -11.249  0.0000E+00  0.2000E+00
    -11.177  0.0000E+00  0.2000E+00
    -11.105  0.0000E+00  0.2000E+00
    -11.033  0.0000E+00  0.2000E+00
    -10.960  0.0000E+00  0.2000E+00
    -10.888  0.0000E+00  0.2000E+00
    -10.816  0.0000E+00  0.2000E+00
    -10.744  0.0000E+00  0.2000E+00
    -10.672  0.0000E+00  0.2000E+00
    -10.599  0.3073E-15  0.2000E+00
    -10.527  0.2190E-13  0.2000E+00
    -10.455  0.1031E-11  0.2000E+00
    -10.383  0.3768E-10  0.2000E+00
    -10.310  0.1066E-08  0.2000E+00
    -10.238  0.2334E-07  0.2000E+00
    -10.166  0.3959E-06  0.2000E+00
    -10.094  0.5207E-05  0.2000E+00
    -10.021  0.5318E-04  0.2000E+00
     -9.949  0.4223E-03  0.2000E+00
     -9.877  0.2613E-02  0.2002E+00
     -9.805  0.1264E-01  0.2011E+00
     -9.732  0.4797E-01  0.2046E+00
     -9.660  0.1436E+00  0.2150E+00
     -9.588  0.3414E+00  0.2396E+00
     -9.516  0.6515E+00  0.2867E+00
     -9.443  0.1010E+01  0.3597E+00
     -9.371  0.1294E+01  0.4532E+00
     -9.299  0.1389E+01  0.5535E+00
     -9.227  0.1263E+01  0.6448E+00
     -9.154  0.9729E+00  0.7151E+00
     -9.082  0.6285E+00  0.7605E+00
     -9.010  0.3350E+00  0.7847E+00
     -8.938  0.1447E+00  0.7952E+00
     -8.865  0.4997E-01  0.7988E+00
     -8.793  0.1364E-01  0.7997E+00
     -8.721  0.2921E-02  0.8000E+00
     -8.649  0.4883E-03  0.8000E+00
     -8.576  0.6353E-04  0.8000E+00
     -8.504  0.6418E-05  0.8000E+00
     -8.432  0.5026E-06  0.8000E+00
     -8.360  0.3049E-07  0.8000E+00
     -8.287  0.1431E-08  0.8000E+00
     -8.215  0.5198E-10  0.8000E+00
     -8.143  0.1460E-11  0.8000E+00
     -8.071  0.3150E-13  0.8000E+00
     -7.998  0.6147E-15  0.8000E+00
     -7.926  0.0000E+00  0.8000E+00
     -7.854  0.0000E+00  0.8000E+00
     -7.782  0.0000E+00  0.8000E+00
     -7.709  0.0000E+00  0.8000E+00
     -7.637  0.0000E+00  0.8000E+00
     -7.565  0.0000E+00  0.8000E+00
     -7.493  0.0000E+00  0.8000E+00
     -7.420  0.0000E+00  0.8000E+00
     -7.348  0.0000E+00  0.8000E+00
     -7.276  0.0000E+00  0.8000E+00
     -7.204  0.0000E+00  0.8000E+00
     -7.131  0.0000E+00  0.8000E+00
     -7.059  0.0000E+00  0.8000E+00
     -6.987  0.0000E+00  0.8000E+00
     -6.915  0.0000E+00  0.8000E+00
     -6.842  0.0000E+00  0.8000E+00
     -6.770  0.0000E+00  0.8000E+00
     -6.698  0.0000E+00  0.8000E+00
     -6.626  0.0000E+00  0.8000E+00
     -6.553  0.0000E+00  0.8000E+00
     -6.481  0.0000E+00  0.8000E+00
     -6.409  0.0000E+00  0.8000E+00
     -6.337  0.0000E+00  0.8000E+00
     -6.264  0.0000E+00  0.8000E+00
     -6.192  0.0000E+00  0.8000E+00
     -6.120  0.0000E+00  0.8000E+00
     -6.048  0.0000E+00  0.8000E+00
     -5.975  0.0000E+00  0.8000E+00
     -5.903  0.0000E+00  0.8000E+00
     -5.831  0.0000E+00  0.8000E+00
     -5.759  0.0000E+00  0.8000E+00
     -5.687  0.0000E+00  0.8000E+00
     -5.614  0.0000E+00  0.8000E+00
     -5.542  0.0000E+00  0.8000E+00
     -5.470  0.0000E+00  0.8000E+00
     -5.398  0.0000E+00  0.8000E+00
     -5.325  0.0000E+00  0.8000E+00
     -5.253  0.0000E+00  0.8000E+00
     -5.181  0.0000E+00  0.8000E+00
     -5.109  0.0000E+00  0.8000E+00
     -5.036  0.0000E+00  0.8000E+00
     -4.964  0.0000E+00  0.8000E+00
     -4.892  0.0000E+00  0.8000E+00
     -4.820  0.0000E+00  0.8000E+00
     -4.747  0.0000E+00  0.8000E+00
     -4.675  0.0000E+00  0.8000E+00
     -4.603  0.0000E+00  0.8000E+00
     -4.531  0.0000E+00  0.8000E+00
     -4.458  0.0000E+00  0.8000E+00
     -4.386  0.0000E+00  0.8000E+00
     -4.314  0.0000E+00  0.8000E+00
     -4.242  0.0000E+00  0.8000E+00
     -4.169  0.0000E+00  0.8000E+00
     -4.097  0.0000E+00  0.8000E+00
     -4.025  0.0000E+00  0.8000E+00
     -3.953  0.0000E+00  0.8000E+00
     -3.880  0.0000E+00  0.8000E+00
     -3.808  0.0000E+00  0.8000E+00
     -3.736  0.0000E+00  0.8000E+00
     -3.664  0.0000E+00  0.8000E+00
     -3.591  0.0000E+00  0.8000E+00
     -3.519  0.0000E+00  0.8000E+00
     -3.447  0.0000E+00  0.8000E+00
     -3.375  0.0000E+00  0.8000E+00
     -3.302  0.0000E+00  0.8000E+00
     -3.230  0.0000E+00  0.8000E+00
     -3.158  0.0000E+00  0.8000E+00
     -3.086  0.0000E+00  0.8000E+00
     -3.013  0.0000E+00  0.8000E+00
     -2.941  0.0000E+00  0.8000E+00
     -2.869  0.0000E+00  0.8000E+00
     -2.797  0.0000E+00  0.8000E+00
     -2.724  0.0000E+00  0.8000E+00
     -2.652  0.0000E+00  0.8000E+00
     -2.580  0.0000E+00  0.8000E+00
     -2.508  0.0000E+00  0.8000E+00
     -2.435  0.0000E+00  0.8000E+00
     -2.363  0.0000E+00  0.8000E+00
     -2.291  0.0000E+00  0.8000E+00
     -2.219  0.0000E+00  0.8000E+00
     -2.146  0.0000E+00  0.8000E+00
     -2.074  0.0000E+00  0.8000E+00
     -2.002  0.0000E+00  0.8000E+00
     -1.930  0.0000E+00  0.8000E+00
     -1.857  0.0000E+00  0.8000E+00
     -1.785  0.0000E+00  0.8000E+00
     -1.713  0.0000E+00  0.8000E+00
     -1.641  0.0000E+00  0.8000E+00
     -1.568  0.0000E+00  0.8000E+00
     -1.496  0.0000E+00  0.8000E+00
     -1.424  0.3342E-14  0.8000E+00
     -1.352  0.1753E-12  0.8000E+00
     -1.279  0.7210E-11  0.8000E+00
     -1.207  0.2291E-09  0.8000E+00
     -1.135  0.5626E-08  0.8000E+00
     -1.063  0.1068E-06  0.8000E+00
     -0.990  0.1569E-05  0.8000E+00
     -0.918  0.1782E-04  0.8000E+00
     -0.846  0.1567E-03  0.8000E+00
     -0.774  0.1066E-02  0.8001E+00
     -0.701  0.5613E-02  0.8005E+00
     -0.629  0.2289E-01  0.8021E+00
     -0.557  0.7225E-01  0.8074E+00
     -0.485  0.1767E+00  0.8201E+00
     -0.413  0.3346E+00  0.8443E+00
     -0.340  0.4909E+00  0.8798E+00
     -0.268  0.5580E+00  0.9201E+00
     -0.196  0.4914E+00  0.9556E+00
     -0.124  0.3352E+00  0.9798E+00
     -0.051  0.1772E+00  0.9926E+00
      0.021  0.7284E-01  0.9979E+00
      0.093  0.2510E-01  0.9997E+00
      0.165  0.1608E-01  0.1001E+01
      0.238  0.4162E-01  0.1004E+01
      0.310  0.1253E+00  0.1013E+01
      0.382  0.3099E+00  0.1035E+01
      0.454  0.6214E+00  0.1080E+01
      0.527  0.1019E+01  0.1154E+01
      0.599  0.1370E+01  0.1253E+01
      0.671  0.1511E+01  0.1362E+01
      0.743  0.1357E+01  0.1460E+01
      0.816  0.9825E+00  0.1531E+01
      0.888  0.5680E+00  0.1572E+01
      0.960  0.2600E+00  0.1591E+01
      1.032  0.9366E-01  0.1598E+01
      1.105  0.2642E-01  0.1599E+01
      1.177  0.5816E-02  0.1600E+01
      1.249  0.9973E-03  0.1600E+01
      1.321  0.1330E-03  0.1600E+01
      1.394  0.1378E-04  0.1600E+01
      1.466  0.1108E-05  0.1600E+01
      1.538  0.6914E-07  0.1600E+01
      1.610  0.3345E-08  0.1600E+01
      1.683  0.1254E-09  0.1600E+01
      1.755  0.3642E-11  0.1600E+01
      1.827  0.8206E-13  0.1600E+01
      1.899  0.1306E-14  0.1600E+01
      1.972  0.0000E+00  0.1600E+01
      2.044  0.0000E+00  0.1600E+01
      2.116  0.0000E+00  0.1600E+01
      2.188  0.0000E+00  0.1600E+01
      2.261  0.0000E+00  0.1600E+01
      2.333  0.0000E+00  0.1600E+01
      2.405  0.0000E+00  0.1600E+01
      2.477  0.0000E+00  0.1600E+01
      2.550  0.0000E+00  0.1600E+01
      2.622  0.0000E+00  0.1600E+01
      2.694  0.0000E+00  0.1600E+01
