    5    5   10    1
  0.2067751E+03  0.1024087E-08  0.1021181E-08  0.9889236E-09  0.5000000E-15
  1.000000000000000E-004
  CAR 
 unknown system                          
      8      4      8
 
  0.2500000E+00  0.2500000E+00  0.2500000E+00  0.2500000E+00
    1      -16.979812   1.000000
    2       -9.440924   1.000000
    3       -9.346351   1.000000
    4       -9.222055   1.000000
    5       -0.306076   0.000000
    6        0.547018   0.000000
    7        0.660186   0.000000
    8        0.694085   0.000000
 
 -0.2500000E+00  0.2500000E+00  0.2500000E+00  0.2500000E+00
    1      -16.979817   1.000000
    2       -9.440971   1.000000
    3       -9.346289   1.000000
    4       -9.222141   1.000000
    5       -0.305425   0.000000
    6        0.536423   0.000000
    7        0.662620   0.000000
    8        0.693554   0.000000
 
  0.2500000E+00 -0.2500000E+00  0.2500000E+00  0.2500000E+00
    1      -16.979856   1.000000
    2       -9.440958   1.000000
    3       -9.346315   1.000000
    4       -9.222135   1.000000
    5       -0.299383   0.000000
    6        0.522397   0.000000
    7        0.654692   0.000000
    8        0.677939   0.000000
 
 -0.2500000E+00 -0.2500000E+00  0.2500000E+00  0.2500000E+00
    1      -16.979845   1.000000
    2       -9.440894   1.000000
    3       -9.346326   1.000000
    4       -9.222081   1.000000
    5       -0.305196   0.000000
    6        0.544866   0.000000
    7        0.660606   0.000000
    8        0.690056   0.000000
