 running on   16 total cores
 distrk:  each k-point on   16 cores,    1 groups
 distr:  one band on    4 cores,    4 groups
 using from now: INCAR     
 vasp.5.4.4.18Apr17-6-g9f103f2a35 (build Nov 25 2021 15:25:00) complex          
  
 POSCAR found type information on POSCAR  H  C 
 POSCAR found :  2 types and       5 ions
 scaLAPACK will be used
 LDA part: xc-table for Pade appr. of Perdew
 POSCAR found type information on POSCAR  H  C 
 POSCAR found :  2 types and       5 ions
 generate k-points for:    2    2    2
 POSCAR, INCAR and KPOINTS ok, starting setup
 FFT: planning ...
 WAVECAR not read
 prediction of wavefunctions initialized - no I/O
 entering main loop
       N       E                     dE             d eps       ncg     rms          rms(c)
DAV:   1     0.136684393074E+02    0.13668E+02   -0.19622E+03    96   0.409E+02
DAV:   2    -0.225518712979E+02   -0.36220E+02   -0.36220E+02    72   0.110E+02
DAV:   3    -0.271516860019E+02   -0.45998E+01   -0.45998E+01    64   0.417E+01
DAV:   4    -0.273541223904E+02   -0.20244E+00   -0.20244E+00   128   0.105E+01
DAV:   5    -0.273541966131E+02   -0.74223E-04   -0.74222E-04   104   0.223E-01    0.849E+00
RMM:   6    -0.246049492274E+02    0.27492E+01   -0.50642E+00    64   0.137E+01    0.420E+00
RMM:   7    -0.241396832799E+02    0.46527E+00   -0.10944E+00    64   0.602E+00    0.224E+00
RMM:   8    -0.239955266227E+02    0.14416E+00   -0.16268E-01    64   0.286E+00    0.229E-01
RMM:   9    -0.239899927125E+02    0.55339E-02   -0.10765E-02    64   0.686E-01    0.193E-01
RMM:  10    -0.239836126405E+02    0.63801E-02   -0.24607E-02    64   0.850E-01    0.272E-01
RMM:  11    -0.239844861054E+02   -0.87346E-03   -0.90407E-03    64   0.586E-01    0.949E-02
RMM:  12    -0.239935976443E+02   -0.91115E-02   -0.28261E-03    64   0.326E-01    0.116E-01
RMM:  13    -0.239942867425E+02   -0.68910E-03   -0.11245E-03    64   0.183E-01    0.386E-02
RMM:  14    -0.239970822388E+02   -0.27955E-02   -0.97296E-04    64   0.191E-01    0.205E-02
RMM:  15    -0.239973924010E+02   -0.31016E-03   -0.53570E-05    64   0.405E-02    0.180E-02
RMM:  16    -0.239975964349E+02   -0.20403E-03   -0.83608E-05    64   0.518E-02    0.283E-03
RMM:  17    -0.239976455740E+02   -0.49139E-04   -0.95451E-06    64   0.181E-02    0.351E-03
RMM:  18    -0.239976552778E+02   -0.97038E-05   -0.32247E-06    60   0.988E-03    0.117E-03
RMM:  19    -0.239976595796E+02   -0.43017E-05   -0.56759E-07    48   0.524E-03    0.185E-03
RMM:  20    -0.239976599261E+02   -0.34655E-06   -0.41113E-07    48   0.402E-03
    1 T=     1. E= -.23997086E+02 F= -.23997660E+02 E0= -.23997660E+02  EK= 0.57360E-03 SP= 0.00E+00 SK= 0.00E+00
 bond charge predicted
       N       E                     dE             d eps       ncg     rms          rms(c)
DAV:   1    -0.240020840240E+02   -0.44244E-02   -0.48675E-03    96   0.650E-01    0.329E-02
RMM:   2    -0.240020665306E+02    0.17493E-04   -0.12163E-04    64   0.823E-02    0.175E-02
RMM:   3    -0.240020655686E+02    0.96202E-06   -0.33476E-05    64   0.393E-02    0.655E-03
RMM:   4    -0.240020655638E+02    0.48173E-08   -0.14521E-06    48   0.100E-02
    2 T=     9. E= -.23997167E+02 F= -.24002066E+02 E0= -.24002066E+02  EK= 0.48985E-02 SP= 0.00E+00 SK= 0.00E+00
 bond charge predicted
 prediction of wavefunctions
       N       E                     dE             d eps       ncg     rms          rms(c)
DAV:   1    -0.240095980397E+02   -0.75325E-02   -0.39082E-03    64   0.609E-01    0.832E-03
RMM:   2    -0.240096139614E+02   -0.15922E-04   -0.16088E-04    64   0.106E-01    0.378E-03
RMM:   3    -0.240096149404E+02   -0.97901E-06   -0.58574E-06    52   0.205E-02    0.303E-03
RMM:   4    -0.240096154010E+02   -0.46065E-06   -0.14441E-06    48   0.100E-02
    3 T=    24. E= -.23997305E+02 F= -.24009615E+02 E0= -.24009615E+02  EK= 0.12310E-01 SP= 0.00E+00 SK= 0.00E+00
 bond charge predicted
 prediction of wavefunctions
       N       E                     dE             d eps       ncg     rms          rms(c)
DAV:   1    -0.240181328957E+02   -0.85180E-02   -0.12542E-03    64   0.291E-01    0.118E-02
RMM:   2    -0.240181313382E+02    0.15575E-05   -0.40334E-05    64   0.512E-02    0.673E-03
RMM:   3    -0.240181321521E+02   -0.81387E-06   -0.13859E-05    64   0.229E-02    0.228E-03
RMM:   4    -0.240181325800E+02   -0.42792E-06   -0.55811E-07    48   0.596E-03
    4 T=    40. E= -.23997469E+02 F= -.24018133E+02 E0= -.24018133E+02  EK= 0.20664E-01 SP= 0.00E+00 SK= 0.00E+00
 bond charge predicted
 prediction of wavefunctions
       N       E                     dE             d eps       ncg     rms          rms(c)
DAV:   1    -0.240250540371E+02   -0.69219E-02   -0.17600E-03    72   0.351E-01    0.445E-03
RMM:   2    -0.240250576955E+02   -0.36585E-05   -0.12834E-05    64   0.275E-02    0.195E-03
RMM:   3    -0.240250604630E+02   -0.27675E-05   -0.89313E-07    48   0.778E-03    0.110E-03
RMM:   4    -0.240250633523E+02   -0.28893E-05   -0.24534E-07    48   0.356E-03    0.422E-04
RMM:   5    -0.240250664885E+02   -0.31362E-05   -0.28258E-07    48   0.292E-03    0.378E-04
RMM:   6    -0.240250694206E+02   -0.29321E-05   -0.26890E-07    44   0.280E-03    0.448E-04
RMM:   7    -0.240250701828E+02   -0.76224E-06   -0.44779E-08    39   0.168E-03
    5 T=    53. E= -.23997611E+02 F= -.24025070E+02 E0= -.24025070E+02  EK= 0.27459E-01 SP= 0.00E+00 SK= 0.00E+00
 bond charge predicted
 prediction of wavefunctions
       N       E                     dE             d eps       ncg     rms          rms(c)
DAV:   1    -0.240282389429E+02   -0.31695E-02   -0.21455E-03    80   0.360E-01    0.596E-03
RMM:   2    -0.240282406767E+02   -0.17338E-05   -0.77759E-06    64   0.230E-02    0.246E-03
RMM:   3    -0.240282434898E+02   -0.28131E-05   -0.26957E-06    59   0.108E-02    0.864E-04
RMM:   4    -0.240282445661E+02   -0.10763E-05   -0.15608E-07    48   0.323E-03    0.377E-04
RMM:   5    -0.240282473846E+02   -0.28185E-05   -0.37951E-07    48   0.381E-03    0.919E-04
RMM:   6    -0.240282476719E+02   -0.28727E-06   -0.11412E-07    48   0.210E-03
    6 T=    59. E= -.23997688E+02 F= -.24028248E+02 E0= -.24028248E+02  EK= 0.30560E-01 SP= 0.00E+00 SK= 0.00E+00
 bond charge predicted
 prediction of wavefunctions
       N       E                     dE             d eps       ncg     rms          rms(c)
DAV:   1    -0.240265458986E+02    0.17015E-02   -0.20947E-03    64   0.364E-01    0.245E-03
RMM:   2    -0.240265491184E+02   -0.32198E-05   -0.83715E-06    64   0.294E-02    0.142E-03
RMM:   3    -0.240265514430E+02   -0.23246E-05   -0.33080E-07    48   0.526E-03    0.733E-04
RMM:   4    -0.240265544447E+02   -0.30017E-05   -0.23030E-07    48   0.361E-03    0.253E-04
RMM:   5    -0.240265566685E+02   -0.22238E-05   -0.24412E-08    40   0.186E-03    0.158E-04
RMM:   6    -0.240265589434E+02   -0.22749E-05   -0.97690E-08    40   0.194E-03    0.190E-04
RMM:   7    -0.240265593204E+02   -0.37706E-06   -0.40357E-08    36   0.178E-03
    7 T=    56. E= -.23997667E+02 F= -.24026559E+02 E0= -.24026559E+02  EK= 0.28893E-01 SP= 0.00E+00 SK= 0.00E+00
 bond charge predicted
 prediction of wavefunctions
       N       E                     dE             d eps       ncg     rms          rms(c)
DAV:   1    -0.240204412854E+02    0.61177E-02   -0.17757E-03    80   0.340E-01    0.170E-03
RMM:   2    -0.240204427389E+02   -0.14535E-05   -0.68541E-06    64   0.294E-02    0.135E-03
RMM:   3    -0.240204431525E+02   -0.41358E-06   -0.14659E-07    47   0.388E-03    0.105E-03
RMM:   4    -0.240204442520E+02   -0.10996E-05   -0.10324E-07    48   0.263E-03    0.128E-04
RMM:   5    -0.240204444104E+02   -0.15832E-06   -0.46642E-09    36   0.125E-03
    8 T=    44. E= -.23997546E+02 F= -.24020444E+02 E0= -.24020444E+02  EK= 0.22899E-01 SP= 0.00E+00 SK= 0.00E+00
 bond charge predicted
 prediction of wavefunctions
       N       E                     dE             d eps       ncg     rms          rms(c)
DAV:   1    -0.240118997738E+02    0.85445E-02   -0.12497E-03    80   0.292E-01    0.357E-03
RMM:   2    -0.240119004068E+02   -0.63305E-06   -0.94897E-06    64   0.345E-02    0.185E-03
RMM:   3    -0.240119005279E+02   -0.12103E-06   -0.44065E-07    48   0.578E-03    0.955E-04
RMM:   4    -0.240119007009E+02   -0.17307E-06   -0.17928E-07    48   0.383E-03
    9 T=    28. E= -.23997360E+02 F= -.24011901E+02 E0= -.24011901E+02  EK= 0.14541E-01 SP= 0.00E+00 SK= 0.00E+00
 bond charge predicted
 prediction of wavefunctions
       N       E                     dE             d eps       ncg     rms          rms(c)
DAV:   1    -0.240039113186E+02    0.79892E-02   -0.63636E-04    80   0.218E-01    0.236E-03
RMM:   2    -0.240039120011E+02   -0.68255E-06   -0.62397E-06    64   0.291E-02    0.176E-03
RMM:   3    -0.240039121455E+02   -0.14436E-06   -0.13967E-07    48   0.375E-03    0.124E-03
RMM:   4    -0.240039125334E+02   -0.38788E-06   -0.61484E-08    43   0.249E-03
   10 T=    13. E= -.23997176E+02 F= -.24003913E+02 E0= -.24003913E+02  EK= 0.67363E-02 SP= 0.00E+00 SK= 0.00E+00
 bond charge predicted
 prediction of wavefunctions
 wavefunctions rotated
