 vasp.5.4.4.18Apr17-6-g9f103f2a35 (build Nov 25 2021 15:25:00) complex          
  
 executed on             LinuxIFC date 2022.02.21  10:16:55
 running on   16 total cores
 distrk:  each k-point on   16 cores,    1 groups
 distr:  one band on NCORES_PER_BAND=   4 cores,    4 groups


--------------------------------------------------------------------------------------------------------


 INCAR:
 POTCAR:    PAW_PBE H 15Jun2001                   
 POTCAR:    PAW_PBE C 08Apr2002                   
 POTCAR:    PAW_PBE H 15Jun2001                   
   VRHFIN =H: ultrasoft test                                                    
   LEXCH  = PE                                                                  
   EATOM  =    12.4884 eV,    0.9179 Ry                                         
                                                                                
   TITEL  = PAW_PBE H 15Jun2001                                                 
   LULTRA =        F    use ultrasoft PP ?                                      
   IUNSCR =        0    unscreen: 0-lin 1-nonlin 2-no                           
   RPACOR =    0.000    partial core radius                                     
   POMASS =    1.000; ZVAL   =    1.000    mass and valenz                      
   RCORE  =    1.100    outmost cutoff radius                                   
   RWIGS  =    0.700; RWIGS  =    0.370    wigner-seitz radius (au A)           
   ENMAX  =  250.000; ENMIN  =  200.000 eV                                      
   RCLOC  =    0.701    cutoff for local pot                                    
   LCOR   =        T    correct aug charges                                     
   LPAW   =        T    paw PP                                                  
   EAUG   =  400.000                                                            
   RMAX   =    1.123    core radius for proj-oper                               
   RAUG   =    1.200    factor for augmentation sphere                          
   RDEP   =    1.112    radius for radial grids                                 
   RDEPT  =    0.926    core radius for aug-charge                              
                                                                                
   Atomic configuration                                                         
    2 entries                                                                   
     n  l   j            E        occ.                                          
     1  0  0.50        -6.4927   1.0000                                         
     2  1  0.50        -3.4015   0.0000                                         
   Description                                                                  
     l       E           TYP  RCUT    TYP  RCUT                                 
     0     -6.4927494     23  1.100                                             
     0      6.8029130     23  1.100                                             
     1     -4.0817478     23  1.100                                             
  local pseudopotential read in
  atomic valenz-charges read in
  non local Contribution for L=           0  read in
    real space projection operators read in
  non local Contribution for L=           0  read in
    real space projection operators read in
  non local Contribution for L=           1  read in
    real space projection operators read in
    PAW grid and wavefunctions read in
 
   number of l-projection  operators is LMAX  =           3
   number of lm-projection operators is LMMAX =           5
 
 POTCAR:    PAW_PBE C 08Apr2002                   
   VRHFIN =C: s2p2                                                              
   LEXCH  = PE                                                                  
   EATOM  =   147.1560 eV,   10.8157 Ry                                         
                                                                                
   TITEL  = PAW_PBE C 08Apr2002                                                 
   LULTRA =        F    use ultrasoft PP ?                                      
   IUNSCR =        1    unscreen: 0-lin 1-nonlin 2-no                           
   RPACOR =    1.200    partial core radius                                     
   POMASS =   12.011; ZVAL   =    4.000    mass and valenz                      
   RCORE  =    1.500    outmost cutoff radius                                   
   RWIGS  =    1.630; RWIGS  =    0.863    wigner-seitz radius (au A)           
   ENMAX  =  400.000; ENMIN  =  300.000 eV                                      
   ICORE  =        2    local potential                                         
   LCOR   =        T    correct aug charges                                     
   LPAW   =        T    paw PP                                                  
   EAUG   =  644.873                                                            
   DEXC   =    0.000                                                            
   RMAX   =    1.529    core radius for proj-oper                               
   RAUG   =    1.300    factor for augmentation sphere                          
   RDEP   =    1.501    radius for radial grids                                 
   RDEPT  =    1.300    core radius for aug-charge                              
                                                                                
   Atomic configuration                                                         
    4 entries                                                                   
     n  l   j            E        occ.                                          
     1  0  0.50      -273.3789   2.0000                                         
     2  0  0.50       -13.7508   2.0000                                         
     2  1  0.50        -5.2854   2.0000                                         
     3  2  1.50        -5.4423   0.0000                                         
   Description                                                                  
     l       E           TYP  RCUT    TYP  RCUT                                 
     0    -13.7508458     23  1.200                                             
     0     -8.2022199     23  1.200                                             
     1     -5.2854383     23  1.500                                             
     1     34.0145650     23  1.500                                             
     2     -5.4423304      7  1.500                                             
  local pseudopotential read in
  partial core-charges read in
  partial kinetic energy density read in
  atomic valenz-charges read in
  non local Contribution for L=           0  read in
    real space projection operators read in
  non local Contribution for L=           0  read in
    real space projection operators read in
  non local Contribution for L=           1  read in
    real space projection operators read in
  non local Contribution for L=           1  read in
    real space projection operators read in
    PAW grid and wavefunctions read in
 
   number of l-projection  operators is LMAX  =           4
   number of lm-projection operators is LMMAX =           8
 
  PAW_PBE H 15Jun2001                   :
 energy of atom  1       EATOM=  -12.4884
 kinetic energy error for atom=    0.0098 (will be added to EATOM!!)
  PAW_PBE C 08Apr2002                   :
 energy of atom  2       EATOM= -147.1560
 kinetic energy error for atom=    0.0288 (will be added to EATOM!!)
 
 
 POSCAR:  H  C                                   
  positions in cartesian coordinates
  No initial velocities read in
 exchange correlation table for  LEXCH =        8
   RHO(1)=    0.500       N(1)  =     2000
   RHO(2)=  100.500       N(2)  =     4000

 VTST: version 3.2, (02/03/18)

 CHAIN: initializing optimizer
 
 OPT: Using VASP Dynamics algorithm
 CHAIN: Read ICHAIN            0
 
 POSCAR:  H  C                                   
  positions in cartesian coordinates
  No initial velocities read in
 


--------------------------------------------------------------------------------------------------------


 ion  position               nearest neighbor table
   1  0.538  0.407  0.360-   5 1.11
   2  0.395  0.480  0.438-   5 1.12
   3  0.552  0.566  0.442-   5 1.13
   4  0.528  0.417  0.539-   5 1.08
   5  0.503  0.467  0.445-   4 1.08   1 1.11   2 1.12   3 1.13
 

IMPORTANT INFORMATION: All symmetrisations will be switched off!
NOSYMM: (Re-)initialisation of all symmetry stuff for point group C_1.

 
 

Automatic generation of k-mesh.
 generate k-points for:    2    2    2
Space group operators:
 irot       det(A)        alpha          n_x          n_y          n_z        tau_x        tau_y        tau_z
    1     1.000000     0.000000     1.000000     0.000000     0.000000     0.000000     0.000000     0.000000
 
 Subroutine IBZKPT returns following result:
 ===========================================
 
 Found      4 irreducible k-points:
 
 Following reciprocal coordinates:
            Coordinates               Weight
  0.250000  0.250000  0.250000      2.000000
 -0.250000  0.250000  0.250000      2.000000
  0.250000 -0.250000  0.250000      2.000000
 -0.250000 -0.250000  0.250000      2.000000
 
 Following cartesian coordinates:
            Coordinates               Weight
  0.024412  0.024109  0.025197      2.000000
 -0.024412  0.024859  0.024609      2.000000
  0.024412 -0.024859  0.025960      2.000000
 -0.024412 -0.024109  0.025373      2.000000
 


--------------------------------------------------------------------------------------------------------




 Dimension of arrays:
   k-points           NKPTS =      4   k-points in BZ     NKDIM =      4   number of bands    NBANDS=      8
   number of dos      NEDOS =    301   number of ions     NIONS =      5
   non local maximal  LDIM  =      4   non local SUM 2l+1 LMDIM =      8
   total plane-waves  NPLWV = 343000
   max r-space proj   IRMAX =      1   max aug-charges    IRDMAX=   4114
   dimension x,y,z NGX =    70 NGY =   70 NGZ =   70
   dimension x,y,z NGXF=   140 NGYF=  140 NGZF=  140
   support grid    NGXF=   140 NGYF=  140 NGZF=  140
   ions per type =               4   1
   NGX,Y,Z   is equivalent  to a cutoff of  11.36, 11.40, 11.77 a.u.
   NGXF,Y,Z  is equivalent  to a cutoff of  22.73, 22.79, 23.54 a.u.

 SYSTEM =  unknown system                          
 POSCAR =   H  C                                   

 Startparameter for this run:
   NWRITE =      2    write-flag & timer
   PREC   = a         normal or accurate (medium, high low for compatibility)
   ISTART =      0    job   : 0-new  1-cont  2-samecut
   ICHARG =      2    charge: 1-file 2-atom 10-const
   ISPIN  =      1    spin polarized calculation?
   LNONCOLLINEAR =      F non collinear calculations
   LSORBIT =      F    spin-orbit coupling
   INIWAV =      1    electr: 0-lowe 1-rand  2-diag
   LASPH  =      F    aspherical Exc in radial PAW
   METAGGA=      F    non-selfconsistent MetaGGA calc.

 Electronic Relaxation 1
   ENCUT  =  400.0 eV  29.40 Ry    5.42 a.u.  16.70 16.65 16.13*2*pi/ulx,y,z
   ENINI  =  400.0     initial cutoff
   ENAUG  =  644.9 eV  augmentation charge cutoff
   NELM   =    120;   NELMIN=  4; NELMDL= -5     # of ELM steps 
   EDIFF  = 0.1E-05   stopping-criterion for ELM
   LREAL  =      F    real-space projection
   NLSPLINE    = F    spline interpolate recip. space projectors
   LCOMPAT=      F    compatible to vasp.4.4
   GGA_COMPAT  = T    GGA compatible to vasp.4.4-vasp.4.6
   LMAXPAW     = -100 max onsite density
   LMAXMIX     =    2 max onsite mixed and CHGCAR
   VOSKOWN=      0    Vosko Wilk Nusair interpolation
   ROPT   =    0.00000   0.00000
 Ionic relaxation
   EDIFFG = 0.1E-04   stopping-criterion for IOM
   NSW    =     10    number of steps for IOM
   NBLOCK =      1;   KBLOCK =     10    inner block; outer block 
   IBRION =      0    ionic relax: 0-MD 1-quasi-New 2-CG
   NFREE  =      0    steps in history (QN), initial steepest desc. (CG)
   ISIF   =      2    stress and relaxation
   IWAVPR =     12    prediction:  0-non 1-charg 2-wave 3-comb
   ISYM   =      0    0-nonsym 1-usesym 2-fastsym
   LCORR  =      T    Harris-Foulkes like correction to forces

   POTIM  = 0.5000    time-step for ionic-motion
   TEIN   =    0.0    initial temperature
   TEBEG  =    0.0;   TEEND  =   0.0 temperature during run
   SMASS  =  -3.00    Nose mass-parameter (am)
   estimated Nose-frequenzy (Omega)   =  0.10E-29 period in steps =****** mass=  -0.240E-26a.u.
   SCALEE = 1.0000    scale energy and forces
   NPACO  =    256;   APACO  = 16.0  distance and # of slots for P.C.
   PSTRESS=    0.0 pullay stress

  Mass of Ions in am
   POMASS =   1.00 12.01
  Ionic Valenz
   ZVAL   =   1.00  4.00
  Atomic Wigner-Seitz radii
   RWIGS  =  -1.00 -1.00
  virtual crystal weights 
   VCA    =   1.00  1.00
   NELECT =       8.0000    total number of electrons
   NUPDOWN=      -1.0000    fix difference up-down

 DOS related values:
   EMIN   =  10.00;   EMAX   =-10.00  energy-range for DOS
   EFERMI =   0.00
   ISMEAR =     0;   SIGMA  =   0.20  broadening in eV -4-tet -1-fermi 0-gaus

 Electronic relaxation 2 (details)
   IALGO  =     68    algorithm
   LDIAG  =      T    sub-space diagonalisation (order eigenvalues)
   LSUBROT=      F    optimize rotation matrix (better conditioning)
   TURBO    =      0    0=normal 1=particle mesh
   IRESTART =      0    0=no restart 2=restart with 2 vectors
   NREBOOT  =      0    no. of reboots
   NMIN     =      0    reboot dimension
   EREF     =   0.00    reference energy to select bands
   IMIX   =      4    mixing-type and parameters
     AMIX     =   0.40;   BMIX     =  1.00
     AMIX_MAG =   1.60;   BMIX_MAG =  1.00
     AMIN     =   0.10
     WC   =   100.;   INIMIX=   1;  MIXPRE=   1;  MAXMIX= -45

 Intra band minimization:
   WEIMIN = 0.0010     energy-eigenvalue tresh-hold
   EBREAK =  0.31E-07  absolut break condition
   DEPER  =   0.30     relativ break condition  

   TIME   =   0.40     timestep for ELM

  volume/ion in A,a.u.               =     206.78      1395.39
  Fermi-wavevector in a.u.,A,eV,Ry     =   0.323804  0.611901  1.426557  0.104849
  Thomas-Fermi vector in A             =   1.213375
 
 Write flags
   LWAVE        =      F    write WAVECAR
   LDOWNSAMPLE  =      F    k-point downsampling of WAVECAR
   LCHARG       =      F    write CHGCAR
   LVTOT        =      F    write LOCPOT, total local potential
   LVHAR        =      F    write LOCPOT, Hartree potential only
   LELF         =      F    write electronic localiz. function (ELF)
   LORBIT       =      0    0 simple, 1 ext, 2 COOP (PROOUT), +10 PAW based schemes


 Dipole corrections
   LMONO  =      F    monopole corrections only (constant potential shift)
   LDIPOL =      F    correct potential (dipole corrections)
   IDIPOL =      0    1-x, 2-y, 3-z, 4-all directions 
   EPSILON=  1.0000000 bulk dielectric constant

 Exchange correlation treatment:
   GGA     =    --    GGA type
   LEXCH   =     8    internal setting for exchange type
   VOSKOWN=      0    Vosko Wilk Nusair interpolation
   LHFCALC =     F    Hartree Fock is set to
   LHFONE  =     F    Hartree Fock one center treatment
   AEXX    =    0.0000 exact exchange contribution

 Linear response parameters
   LEPSILON=     F    determine dielectric tensor
   LRPA    =     F    only Hartree local field effects (RPA)
   LNABLA  =     F    use nabla operator in PAW spheres
   LVEL    =     F    velocity operator in full k-point grid
   LINTERFAST=   F  fast interpolation
   KINTER  =     0    interpolate to denser k-point grid
   CSHIFT  =0.1000    complex shift for real part using Kramers Kronig
   OMEGAMAX=  -1.0    maximum frequency
   DEG_THRESHOLD= 0.2000000E-02 threshold for treating states as degnerate
   RTIME   =   -0.100 relaxation time in fs
  (WPLASMAI=    0.000 imaginary part of plasma frequency in eV, 0.658/RTIME)
   DFIELD  = 0.0000000 0.0000000 0.0000000 field for delta impulse in time
 
 Orbital magnetization related:
   ORBITALMAG=     F  switch on orbital magnetization
   LCHIMAG   =     F  perturbation theory with respect to B field
   DQ        =  0.001000  dq finite difference perturbation B field
   LLRAUG    =     F  two centre corrections for induced B field



--------------------------------------------------------------------------------------------------------


 molecular dynamics for ions
   using a microcanonical ensemble
 charge density and potential will be updated during run
 non-spin polarized calculation
 RMM-DIIS sequential band-by-band and
  variant of blocked Davidson during initial phase
 perform sub-space diagonalisation
    before iterative eigenvector-optimisation
 modified Broyden-mixing scheme, WC =      100.0
 initial mixing is a Kerker type mixing with AMIX =  0.4000 and BMIX =      1.0000
 Hartree-type preconditioning will be used
 using additional bands            4
 reciprocal scheme for non local part
 use partial core corrections
 calculate Harris-corrections to forces 
   (improved forces if not selfconsistent)
 use gradient corrections 
 use of overlap-Matrix (Vanderbilt PP)
 Gauss-broadening in eV      SIGMA  =   0.20


--------------------------------------------------------------------------------------------------------


  energy-cutoff  :      400.00
  volume of cell :     1033.88
      direct lattice vectors                 reciprocal lattice vectors
    10.240866550  0.000000000  0.000000000     0.097647987 -0.001499784  0.001175243
     0.156825618 10.210610367  0.000000000     0.000000000  0.097937338 -0.001526441
    -0.116632329  0.154103150  9.887347172     0.000000000  0.000000000  0.101139364

  length of vectors
    10.240866550 10.211814644  9.889235814     0.097666575  0.097949233  0.101139364


 
 k-points in units of 2pi/SCALE and weight: read from INCAR                         
   0.02441200  0.02410939  0.02519704       0.250
  -0.02441200  0.02485928  0.02460942       0.250
   0.02441200 -0.02485928  0.02596026       0.250
  -0.02441200 -0.02410939  0.02537264       0.250
 
 k-points in reciprocal lattice and weights: read from INCAR                         
   0.25000000  0.25000000  0.25000000       0.250
  -0.25000000  0.25000000  0.25000000       0.250
   0.25000000 -0.25000000  0.25000000       0.250
  -0.25000000 -0.25000000  0.25000000       0.250
 
 position of ions in fractional coordinates (direct lattice) 
   0.53795126  0.40681638  0.36036050
   0.39493457  0.47988990  0.43785684
   0.55241313  0.56589751  0.44218348
   0.52805342  0.41651182  0.53914442
   0.50349306  0.46727815  0.44491385
 
 position of ions in cartesian coordinates  (Angst):
   5.53085657  4.20937619  3.56300938
   4.06866300  4.96744390  4.32924262
   5.69436349  5.84630088  4.37202154
   5.41016262  4.33592374  5.33070808
   5.17759512  4.83975772  4.39901774
 


--------------------------------------------------------------------------------------------------------


 k-point  1 :   0.2500 0.2500 0.2500  plane waves:   18767
 k-point  2 :  -0.2500 0.2500 0.2500  plane waves:   18777
 k-point  3 :   0.2500-0.2500 0.2500  plane waves:   18787
 k-point  4 :  -0.2500-0.2500 0.2500  plane waves:   18771

 maximum and minimum number of plane-waves per node :      4714     4672

 maximum number of plane-waves:     18787
 maximum index in each direction: 
   IXMAX=   16   IYMAX=   16   IZMAX=   15
   IXMIN=  -16   IYMIN=  -16   IZMIN=  -16


 parallel 3D FFT for wavefunctions:
    minimum data exchange during FFTs selected (reduces bandwidth)
 parallel 3D FFT for charge:
    minimum data exchange during FFTs selected (reduces bandwidth)


 total amount of memory used by VASP MPI-rank0    55491. kBytes
=======================================================================

   base      :      30000. kBytes
   nonl-proj :       2780. kBytes
   fftplans  :       8575. kBytes
   grid      :      13527. kBytes
   one-center:          6. kBytes
   wavefun   :        603. kBytes
 
     INWAV:  cpu time    0.0000: real time    0.0001
 Broyden mixing: mesh for mixing (old mesh)
   NGX = 33   NGY = 33   NGZ = 33
  (NGX  =140   NGY  =140   NGZ  =140)
  gives a total of  35937 points

 initial charge density was supplied:
 charge density of overlapping atoms calculated
 number of electron       8.0000000 magnetization 
 keeping initial charge density in first step


--------------------------------------------------------------------------------------------------------


 Maximum index for augmentation-charges          166 (set IRDMAX)


--------------------------------------------------------------------------------------------------------


 First call to EWALD:  gamma=   0.175
 Maximum number of real-space cells 3x 3x 3
 Maximum number of reciprocal cells 3x 3x 3

    FEWALD:  cpu time    0.0030: real time    0.0030


--------------------------------------- Iteration      1(   1)  ---------------------------------------


    POTLOK:  cpu time    0.1850: real time    0.1992
    SETDIJ:  cpu time    0.0039: real time    0.0043
     EDDAV:  cpu time    0.2343: real time    0.2630
       DOS:  cpu time    0.0003: real time    0.0010
    --------------------------------------------
      LOOP:  cpu time    0.4235: real time    0.4674

 eigenvalue-minimisations  :    96
 total energy-change (2. order) : 0.1366844E+02  (-0.1962216E+03)
 number of electron       8.0000000 magnetization 
 augmentation part        8.0000000 magnetization 

 Free energy of the ion-electron system (eV)
  ---------------------------------------------------
  alpha Z        PSCENC =         0.23431334
  Ewald energy   TEWEN  =       127.20743752
  -Hartree energ DENC   =      -243.82027411
  -exchange      EXHF   =         0.00000000
  -V(xc)+E(xc)   XCENC  =        21.93816633
  PAW double counting   =       117.05815612     -117.66307307
  entropy T*S    EENTRO =        -0.00000000
  eigenvalues    EBANDS =       -88.32804135
  atomic energy  EATOM  =       197.04175453
  Solvation  Ediel_sol  =         0.00000000
  ---------------------------------------------------
  free energy    TOTEN  =        13.66843931 eV

  energy without entropy =       13.66843931  energy(sigma->0) =       13.66843931


--------------------------------------------------------------------------------------------------------




--------------------------------------- Iteration      1(   2)  ---------------------------------------


     EDDAV:  cpu time    0.1888: real time    0.1911
       DOS:  cpu time    0.0002: real time    0.0002
    --------------------------------------------
      LOOP:  cpu time    0.1890: real time    0.1913

 eigenvalue-minimisations  :    72
 total energy-change (2. order) :-0.3622031E+02  (-0.3622031E+02)
 number of electron       8.0000000 magnetization 
 augmentation part        8.0000000 magnetization 

 Free energy of the ion-electron system (eV)
  ---------------------------------------------------
  alpha Z        PSCENC =         0.23431334
  Ewald energy   TEWEN  =       127.20743752
  -Hartree energ DENC   =      -243.82027411
  -exchange      EXHF   =         0.00000000
  -V(xc)+E(xc)   XCENC  =        21.93816633
  PAW double counting   =       117.05815612     -117.66307307
  entropy T*S    EENTRO =        -0.00000000
  eigenvalues    EBANDS =      -124.54835196
  atomic energy  EATOM  =       197.04175453
  Solvation  Ediel_sol  =         0.00000000
  ---------------------------------------------------
  free energy    TOTEN  =       -22.55187130 eV

  energy without entropy =      -22.55187130  energy(sigma->0) =      -22.55187130


--------------------------------------------------------------------------------------------------------




--------------------------------------- Iteration      1(   3)  ---------------------------------------


     EDDAV:  cpu time    0.1736: real time    0.1770
       DOS:  cpu time    0.0002: real time    0.0002
    --------------------------------------------
      LOOP:  cpu time    0.1738: real time    0.1772

 eigenvalue-minimisations  :    64
 total energy-change (2. order) :-0.4599815E+01  (-0.4599815E+01)
 number of electron       8.0000000 magnetization 
 augmentation part        8.0000000 magnetization 

 Free energy of the ion-electron system (eV)
  ---------------------------------------------------
  alpha Z        PSCENC =         0.23431334
  Ewald energy   TEWEN  =       127.20743752
  -Hartree energ DENC   =      -243.82027411
  -exchange      EXHF   =         0.00000000
  -V(xc)+E(xc)   XCENC  =        21.93816633
  PAW double counting   =       117.05815612     -117.66307307
  entropy T*S    EENTRO =        -0.00000000
  eigenvalues    EBANDS =      -129.14816666
  atomic energy  EATOM  =       197.04175453
  Solvation  Ediel_sol  =         0.00000000
  ---------------------------------------------------
  free energy    TOTEN  =       -27.15168600 eV

  energy without entropy =      -27.15168600  energy(sigma->0) =      -27.15168600


--------------------------------------------------------------------------------------------------------




--------------------------------------- Iteration      1(   4)  ---------------------------------------


     EDDAV:  cpu time    0.2902: real time    0.3000
       DOS:  cpu time    0.0002: real time    0.0002
    --------------------------------------------
      LOOP:  cpu time    0.2904: real time    0.3002

 eigenvalue-minimisations  :   128
 total energy-change (2. order) :-0.2024364E+00  (-0.2024364E+00)
 number of electron       8.0000000 magnetization 
 augmentation part        8.0000000 magnetization 

 Free energy of the ion-electron system (eV)
  ---------------------------------------------------
  alpha Z        PSCENC =         0.23431334
  Ewald energy   TEWEN  =       127.20743752
  -Hartree energ DENC   =      -243.82027411
  -exchange      EXHF   =         0.00000000
  -V(xc)+E(xc)   XCENC  =        21.93816633
  PAW double counting   =       117.05815612     -117.66307307
  entropy T*S    EENTRO =        -0.00000000
  eigenvalues    EBANDS =      -129.35060305
  atomic energy  EATOM  =       197.04175453
  Solvation  Ediel_sol  =         0.00000000
  ---------------------------------------------------
  free energy    TOTEN  =       -27.35412239 eV

  energy without entropy =      -27.35412239  energy(sigma->0) =      -27.35412239


--------------------------------------------------------------------------------------------------------




--------------------------------------- Iteration      1(   5)  ---------------------------------------


     EDDAV:  cpu time    0.2422: real time    0.2593
       DOS:  cpu time    0.0002: real time    0.0002
    CHARGE:  cpu time    0.0256: real time    0.0264
    MIXING:  cpu time    0.0046: real time    0.0048
    --------------------------------------------
      LOOP:  cpu time    0.2726: real time    0.2908

 eigenvalue-minimisations  :   104
 total energy-change (2. order) :-0.7422270E-04  (-0.7422174E-04)
 number of electron       8.0000001 magnetization 
 augmentation part        0.2206544 magnetization 

 Broyden mixing:
  rms(total) = 0.84924E+00    rms(broyden)= 0.84903E+00
  rms(prec ) = 0.12000E+01
  weight for this iteration     100.00

 Free energy of the ion-electron system (eV)
  ---------------------------------------------------
  alpha Z        PSCENC =         0.23431334
  Ewald energy   TEWEN  =       127.20743752
  -Hartree energ DENC   =      -243.82027411
  -exchange      EXHF   =         0.00000000
  -V(xc)+E(xc)   XCENC  =        21.93816633
  PAW double counting   =       117.05815612     -117.66307307
  entropy T*S    EENTRO =        -0.00000000
  eigenvalues    EBANDS =      -129.35067727
  atomic energy  EATOM  =       197.04175453
  Solvation  Ediel_sol  =         0.00000000
  ---------------------------------------------------
  free energy    TOTEN  =       -27.35419661 eV

  energy without entropy =      -27.35419661  energy(sigma->0) =      -27.35419661


--------------------------------------------------------------------------------------------------------




--------------------------------------- Iteration      1(   6)  ---------------------------------------


    POTLOK:  cpu time    0.1732: real time    0.1801
    SETDIJ:  cpu time    0.0020: real time    0.0019
    EDDIAG:  cpu time    0.0512: real time    0.0610
  RMM-DIIS:  cpu time    0.1828: real time    0.1893
    ORTHCH:  cpu time    0.0016: real time    0.0016
       DOS:  cpu time    0.0002: real time    0.0002
    CHARGE:  cpu time    0.0222: real time    0.0228
    MIXING:  cpu time    0.0053: real time    0.0070
    --------------------------------------------
      LOOP:  cpu time    0.4385: real time    0.4640

 eigenvalue-minimisations  :    64
 total energy-change (2. order) : 0.2749247E+01  (-0.5064226E+00)
 number of electron       8.0000000 magnetization 
 augmentation part        0.1945162 magnetization 

 Broyden mixing:
  rms(total) = 0.41978E+00    rms(broyden)= 0.41969E+00
  rms(prec ) = 0.54229E+00
  weight for this iteration     100.00

 eigenvalues of (default mixing * dielectric matrix)
  average eigenvalue GAMMA=   1.2956
  1.2956

 Free energy of the ion-electron system (eV)
  ---------------------------------------------------
  alpha Z        PSCENC =         0.23431334
  Ewald energy   TEWEN  =       127.20743752
  -Hartree energ DENC   =      -263.04866260
  -exchange      EXHF   =         0.00000000
  -V(xc)+E(xc)   XCENC  =        23.10561920
  PAW double counting   =       234.22084782     -234.99371937
  entropy T*S    EENTRO =        -0.00000000
  eigenvalues    EBANDS =      -108.37253965
  atomic energy  EATOM  =       197.04175453
  Solvation  Ediel_sol  =         0.00000000
  ---------------------------------------------------
  free energy    TOTEN  =       -24.60494923 eV

  energy without entropy =      -24.60494923  energy(sigma->0) =      -24.60494923


--------------------------------------------------------------------------------------------------------




--------------------------------------- Iteration      1(   7)  ---------------------------------------


    POTLOK:  cpu time    0.1648: real time    0.1701
    SETDIJ:  cpu time    0.0019: real time    0.0020
    EDDIAG:  cpu time    0.0475: real time    0.0489
  RMM-DIIS:  cpu time    0.1792: real time    0.1845
    ORTHCH:  cpu time    0.0015: real time    0.0015
       DOS:  cpu time    0.0002: real time    0.0002
    CHARGE:  cpu time    0.0218: real time    0.0225
    MIXING:  cpu time    0.0049: real time    0.0050
    --------------------------------------------
      LOOP:  cpu time    0.4218: real time    0.4347

 eigenvalue-minimisations  :    64
 total energy-change (2. order) : 0.4652659E+00  (-0.1094392E+00)
 number of electron       8.0000000 magnetization 
 augmentation part        0.1845410 magnetization 

 Broyden mixing:
  rms(total) = 0.22438E+00    rms(broyden)= 0.22433E+00
  rms(prec ) = 0.27130E+00
  weight for this iteration     100.00

 eigenvalues of (default mixing * dielectric matrix)
  average eigenvalue GAMMA=   1.8386
  1.4415  2.2356

 Free energy of the ion-electron system (eV)
  ---------------------------------------------------
  alpha Z        PSCENC =         0.23431334
  Ewald energy   TEWEN  =       127.20743752
  -Hartree energ DENC   =      -274.22589053
  -exchange      EXHF   =         0.00000000
  -V(xc)+E(xc)   XCENC  =        23.93115499
  PAW double counting   =       353.63830957     -354.44657857
  entropy T*S    EENTRO =        -0.00000000
  eigenvalues    EBANDS =       -97.52018414
  atomic energy  EATOM  =       197.04175453
  Solvation  Ediel_sol  =         0.00000000
  ---------------------------------------------------
  free energy    TOTEN  =       -24.13968328 eV

  energy without entropy =      -24.13968328  energy(sigma->0) =      -24.13968328


--------------------------------------------------------------------------------------------------------




--------------------------------------- Iteration      1(   8)  ---------------------------------------


    POTLOK:  cpu time    0.1570: real time    0.1624
    SETDIJ:  cpu time    0.0019: real time    0.0019
    EDDIAG:  cpu time    0.0454: real time    0.0468
  RMM-DIIS:  cpu time    0.1782: real time    0.1836
    ORTHCH:  cpu time    0.0016: real time    0.0016
       DOS:  cpu time    0.0002: real time    0.0002
    CHARGE:  cpu time    0.0211: real time    0.0218
    MIXING:  cpu time    0.0050: real time    0.0051
    --------------------------------------------
      LOOP:  cpu time    0.4104: real time    0.4235

 eigenvalue-minimisations  :    64
 total energy-change (2. order) : 0.1441567E+00  (-0.1626763E-01)
 number of electron       8.0000000 magnetization 
 augmentation part        0.1831842 magnetization 

 Broyden mixing:
  rms(total) = 0.22894E-01    rms(broyden)= 0.22871E-01
  rms(prec ) = 0.52022E-01
  weight for this iteration     100.00

 eigenvalues of (default mixing * dielectric matrix)
  average eigenvalue GAMMA=   1.5399
  2.2478  0.9800  1.3918

 Free energy of the ion-electron system (eV)
  ---------------------------------------------------
  alpha Z        PSCENC =         0.23431334
  Ewald energy   TEWEN  =       127.20743752
  -Hartree energ DENC   =      -279.61243898
  -exchange      EXHF   =         0.00000000
  -V(xc)+E(xc)   XCENC  =        24.46563943
  PAW double counting   =       457.48403727     -458.26097018
  entropy T*S    EENTRO =        -0.00000000
  eigenvalues    EBANDS =       -92.55529955
  atomic energy  EATOM  =       197.04175453
  Solvation  Ediel_sol  =         0.00000000
  ---------------------------------------------------
  free energy    TOTEN  =       -23.99552662 eV

  energy without entropy =      -23.99552662  energy(sigma->0) =      -23.99552662


--------------------------------------------------------------------------------------------------------




--------------------------------------- Iteration      1(   9)  ---------------------------------------


    POTLOK:  cpu time    0.1590: real time    0.1633
    SETDIJ:  cpu time    0.0025: real time    0.0026
    EDDIAG:  cpu time    0.0450: real time    0.0464
  RMM-DIIS:  cpu time    0.1875: real time    0.1940
    ORTHCH:  cpu time    0.0015: real time    0.0015
       DOS:  cpu time    0.0002: real time    0.0002
    CHARGE:  cpu time    0.0211: real time    0.0220
    MIXING:  cpu time    0.0054: real time    0.0069
    --------------------------------------------
      LOOP:  cpu time    0.4222: real time    0.4369

 eigenvalue-minimisations  :    64
 total energy-change (2. order) : 0.5533910E-02  (-0.1076534E-02)
 number of electron       8.0000000 magnetization 
 augmentation part        0.1826375 magnetization 

 Broyden mixing:
  rms(total) = 0.19252E-01    rms(broyden)= 0.19248E-01
  rms(prec ) = 0.39736E-01
  weight for this iteration     100.00

 eigenvalues of (default mixing * dielectric matrix)
  average eigenvalue GAMMA=   2.0816
  1.0031  1.3598  2.9819  2.9819

 Free energy of the ion-electron system (eV)
  ---------------------------------------------------
  alpha Z        PSCENC =         0.23431334
  Ewald energy   TEWEN  =       127.20743752
  -Hartree energ DENC   =      -280.83955201
  -exchange      EXHF   =         0.00000000
  -V(xc)+E(xc)   XCENC  =        24.53233628
  PAW double counting   =       460.06584626     -460.84554622
  entropy T*S    EENTRO =        -0.00000000
  eigenvalues    EBANDS =       -91.38658241
  atomic energy  EATOM  =       197.04175453
  Solvation  Ediel_sol  =         0.00000000
  ---------------------------------------------------
  free energy    TOTEN  =       -23.98999271 eV

  energy without entropy =      -23.98999271  energy(sigma->0) =      -23.98999271


--------------------------------------------------------------------------------------------------------




--------------------------------------- Iteration      1(  10)  ---------------------------------------


    POTLOK:  cpu time    0.1542: real time    0.1595
    SETDIJ:  cpu time    0.0018: real time    0.0019
    EDDIAG:  cpu time    0.0450: real time    0.0464
  RMM-DIIS:  cpu time    0.1805: real time    0.1868
    ORTHCH:  cpu time    0.0016: real time    0.0016
       DOS:  cpu time    0.0002: real time    0.0002
    CHARGE:  cpu time    0.0213: real time    0.0223
    MIXING:  cpu time    0.0053: real time    0.0055
    --------------------------------------------
      LOOP:  cpu time    0.4099: real time    0.4243

 eigenvalue-minimisations  :    64
 total energy-change (2. order) : 0.6380072E-02  (-0.2460714E-02)
 number of electron       8.0000000 magnetization 
 augmentation part        0.1816052 magnetization 

 Broyden mixing:
  rms(total) = 0.27214E-01    rms(broyden)= 0.27212E-01
  rms(prec ) = 0.34861E-01
  weight for this iteration     100.00

 eigenvalues of (default mixing * dielectric matrix)
  average eigenvalue GAMMA=   1.7869
  3.0667  2.4004  0.9844  1.2415  1.2415

 Free energy of the ion-electron system (eV)
  ---------------------------------------------------
  alpha Z        PSCENC =         0.23431334
  Ewald energy   TEWEN  =       127.20743752
  -Hartree energ DENC   =      -283.01452616
  -exchange      EXHF   =         0.00000000
  -V(xc)+E(xc)   XCENC  =        24.60300517
  PAW double counting   =       444.95418953     -445.73729349
  entropy T*S    EENTRO =        -0.00000000
  eigenvalues    EBANDS =       -89.27249309
  atomic energy  EATOM  =       197.04175453
  Solvation  Ediel_sol  =         0.00000000
  ---------------------------------------------------
  free energy    TOTEN  =       -23.98361264 eV

  energy without entropy =      -23.98361264  energy(sigma->0) =      -23.98361264


--------------------------------------------------------------------------------------------------------




--------------------------------------- Iteration      1(  11)  ---------------------------------------


    POTLOK:  cpu time    0.1518: real time    0.1568
    SETDIJ:  cpu time    0.0019: real time    0.0020
    EDDIAG:  cpu time    0.0449: real time    0.0463
  RMM-DIIS:  cpu time    0.1724: real time    0.1794
    ORTHCH:  cpu time    0.0017: real time    0.0017
       DOS:  cpu time    0.0002: real time    0.0002
    CHARGE:  cpu time    0.0212: real time    0.0222
    MIXING:  cpu time    0.0054: real time    0.0055
    --------------------------------------------
      LOOP:  cpu time    0.3995: real time    0.4141

 eigenvalue-minimisations  :    64
 total energy-change (2. order) :-0.8734649E-03  (-0.9040664E-03)
 number of electron       8.0000000 magnetization 
 augmentation part        0.1819961 magnetization 

 Broyden mixing:
  rms(total) = 0.94932E-02    rms(broyden)= 0.94898E-02
  rms(prec ) = 0.15070E-01
  weight for this iteration     100.00

 eigenvalues of (default mixing * dielectric matrix)
  average eigenvalue GAMMA=   2.2549
  4.7468  3.0628  2.4224  1.2574  1.0199  1.0199

 Free energy of the ion-electron system (eV)
  ---------------------------------------------------
  alpha Z        PSCENC =         0.23431334
  Ewald energy   TEWEN  =       127.20743752
  -Hartree energ DENC   =      -282.90305503
  -exchange      EXHF   =         0.00000000
  -V(xc)+E(xc)   XCENC  =        24.61722066
  PAW double counting   =       453.83464611     -454.61001153
  entropy T*S    EENTRO =        -0.00000000
  eigenvalues    EBANDS =       -89.40679170
  atomic energy  EATOM  =       197.04175453
  Solvation  Ediel_sol  =         0.00000000
  ---------------------------------------------------
  free energy    TOTEN  =       -23.98448611 eV

  energy without entropy =      -23.98448611  energy(sigma->0) =      -23.98448611


--------------------------------------------------------------------------------------------------------




--------------------------------------- Iteration      1(  12)  ---------------------------------------


    POTLOK:  cpu time    0.2030: real time    0.2108
    SETDIJ:  cpu time    0.0019: real time    0.0020
    EDDIAG:  cpu time    0.0449: real time    0.0462
  RMM-DIIS:  cpu time    0.1762: real time    0.1821
    ORTHCH:  cpu time    0.0017: real time    0.0017
       DOS:  cpu time    0.0002: real time    0.0002
    CHARGE:  cpu time    0.0212: real time    0.0220
    MIXING:  cpu time    0.0056: real time    0.0058
    --------------------------------------------
      LOOP:  cpu time    0.4545: real time    0.4708

 eigenvalue-minimisations  :    64
 total energy-change (2. order) :-0.9111539E-02  (-0.2826120E-03)
 number of electron       8.0000000 magnetization 
 augmentation part        0.1821710 magnetization 

 Broyden mixing:
  rms(total) = 0.11592E-01    rms(broyden)= 0.11591E-01
  rms(prec ) = 0.15255E-01
  weight for this iteration     100.00

 eigenvalues of (default mixing * dielectric matrix)
  average eigenvalue GAMMA=   2.0098
  4.7326  2.9085  2.4190  1.1877  1.0129  1.0129  0.7952

 Free energy of the ion-electron system (eV)
  ---------------------------------------------------
  alpha Z        PSCENC =         0.23431334
  Ewald energy   TEWEN  =       127.20743752
  -Hartree energ DENC   =      -283.12753211
  -exchange      EXHF   =         0.00000000
  -V(xc)+E(xc)   XCENC  =        24.60910306
  PAW double counting   =       450.49111324     -451.26595334
  entropy T*S    EENTRO =        -0.00000000
  eigenvalues    EBANDS =       -89.18383389
  atomic energy  EATOM  =       197.04175453
  Solvation  Ediel_sol  =         0.00000000
  ---------------------------------------------------
  free energy    TOTEN  =       -23.99359764 eV

  energy without entropy =      -23.99359764  energy(sigma->0) =      -23.99359764


--------------------------------------------------------------------------------------------------------




--------------------------------------- Iteration      1(  13)  ---------------------------------------


    POTLOK:  cpu time    0.1434: real time    0.1495
    SETDIJ:  cpu time    0.0018: real time    0.0019
    EDDIAG:  cpu time    0.0454: real time    0.0469
  RMM-DIIS:  cpu time    0.1794: real time    0.1890
    ORTHCH:  cpu time    0.0019: real time    0.0019
       DOS:  cpu time    0.0002: real time    0.0003
    CHARGE:  cpu time    0.0210: real time    0.0217
    MIXING:  cpu time    0.0065: real time    0.0067
    --------------------------------------------
      LOOP:  cpu time    0.3998: real time    0.4179

 eigenvalue-minimisations  :    64
 total energy-change (2. order) :-0.6890982E-03  (-0.1124456E-03)
 number of electron       8.0000000 magnetization 
 augmentation part        0.1819141 magnetization 

 Broyden mixing:
  rms(total) = 0.38571E-02    rms(broyden)= 0.38567E-02
  rms(prec ) = 0.55977E-02
  weight for this iteration     100.00

 eigenvalues of (default mixing * dielectric matrix)
  average eigenvalue GAMMA=   2.3776
  5.9729  3.9740  2.4310  2.3071  1.2252  1.2252  0.9846  0.9008

 Free energy of the ion-electron system (eV)
  ---------------------------------------------------
  alpha Z        PSCENC =         0.23431334
  Ewald energy   TEWEN  =       127.20743752
  -Hartree energ DENC   =      -283.31221263
  -exchange      EXHF   =         0.00000000
  -V(xc)+E(xc)   XCENC  =        24.61406120
  PAW double counting   =       450.30697300     -451.08420119
  entropy T*S    EENTRO =        -0.00000000
  eigenvalues    EBANDS =       -89.00241250
  atomic energy  EATOM  =       197.04175453
  Solvation  Ediel_sol  =         0.00000000
  ---------------------------------------------------
  free energy    TOTEN  =       -23.99428674 eV

  energy without entropy =      -23.99428674  energy(sigma->0) =      -23.99428674


--------------------------------------------------------------------------------------------------------




--------------------------------------- Iteration      1(  14)  ---------------------------------------


    POTLOK:  cpu time    0.1408: real time    0.1488
    SETDIJ:  cpu time    0.0018: real time    0.0019
    EDDIAG:  cpu time    0.0457: real time    0.0476
  RMM-DIIS:  cpu time    0.1785: real time    0.1861
    ORTHCH:  cpu time    0.0016: real time    0.0021
       DOS:  cpu time    0.0003: real time    0.0003
    CHARGE:  cpu time    0.0214: real time    0.0222
    MIXING:  cpu time    0.0060: real time    0.0062
    --------------------------------------------
      LOOP:  cpu time    0.3960: real time    0.4153

 eigenvalue-minimisations  :    64
 total energy-change (2. order) :-0.2795496E-02  (-0.9729560E-04)
 number of electron       8.0000000 magnetization 
 augmentation part        0.1818312 magnetization 

 Broyden mixing:
  rms(total) = 0.20522E-02    rms(broyden)= 0.20507E-02
  rms(prec ) = 0.28017E-02
  weight for this iteration     100.00

 eigenvalues of (default mixing * dielectric matrix)
  average eigenvalue GAMMA=   2.3387
  6.4312  3.9024  2.6393  2.3340  1.3768  1.2278  1.2278  0.9838  0.9255

 Free energy of the ion-electron system (eV)
  ---------------------------------------------------
  alpha Z        PSCENC =         0.23431334
  Ewald energy   TEWEN  =       127.20743752
  -Hartree energ DENC   =      -283.28896006
  -exchange      EXHF   =         0.00000000
  -V(xc)+E(xc)   XCENC  =        24.60365144
  PAW double counting   =       449.74556663     -450.52365669
  entropy T*S    EENTRO =        -0.00000000
  eigenvalues    EBANDS =       -89.01718894
  atomic energy  EATOM  =       197.04175453
  Solvation  Ediel_sol  =         0.00000000
  ---------------------------------------------------
  free energy    TOTEN  =       -23.99708224 eV

  energy without entropy =      -23.99708224  energy(sigma->0) =      -23.99708224


--------------------------------------------------------------------------------------------------------




--------------------------------------- Iteration      1(  15)  ---------------------------------------


    POTLOK:  cpu time    0.1425: real time    0.1471
    SETDIJ:  cpu time    0.0019: real time    0.0019
    EDDIAG:  cpu time    0.0438: real time    0.0455
  RMM-DIIS:  cpu time    0.1749: real time    0.1822
    ORTHCH:  cpu time    0.0016: real time    0.0016
       DOS:  cpu time    0.0002: real time    0.0002
    CHARGE:  cpu time    0.0217: real time    0.0225
    MIXING:  cpu time    0.0061: real time    0.0063
    --------------------------------------------
      LOOP:  cpu time    0.3927: real time    0.4074

 eigenvalue-minimisations  :    64
 total energy-change (2. order) :-0.3101622E-03  (-0.5356989E-05)
 number of electron       8.0000000 magnetization 
 augmentation part        0.1817729 magnetization 

 Broyden mixing:
  rms(total) = 0.17991E-02    rms(broyden)= 0.17989E-02
  rms(prec ) = 0.24110E-02
  weight for this iteration     100.00

 eigenvalues of (default mixing * dielectric matrix)
  average eigenvalue GAMMA=   2.5169
  7.5221  4.7999  2.6759  2.6759  2.1008  1.2512  1.2512  0.9971  0.9971  0.8974

 Free energy of the ion-electron system (eV)
  ---------------------------------------------------
  alpha Z        PSCENC =         0.23431334
  Ewald energy   TEWEN  =       127.20743752
  -Hartree energ DENC   =      -283.31370313
  -exchange      EXHF   =         0.00000000
  -V(xc)+E(xc)   XCENC  =        24.60527285
  PAW double counting   =       449.84953880     -450.62736290
  entropy T*S    EENTRO =        -0.00000000
  eigenvalues    EBANDS =       -88.99464341
  atomic energy  EATOM  =       197.04175453
  Solvation  Ediel_sol  =         0.00000000
  ---------------------------------------------------
  free energy    TOTEN  =       -23.99739240 eV

  energy without entropy =      -23.99739240  energy(sigma->0) =      -23.99739240


--------------------------------------------------------------------------------------------------------




--------------------------------------- Iteration      1(  16)  ---------------------------------------


    POTLOK:  cpu time    0.1429: real time    0.1478
    SETDIJ:  cpu time    0.0024: real time    0.0024
    EDDIAG:  cpu time    0.0446: real time    0.0465
  RMM-DIIS:  cpu time    0.1745: real time    0.1826
    ORTHCH:  cpu time    0.0021: real time    0.0022
       DOS:  cpu time    0.0002: real time    0.0002
    CHARGE:  cpu time    0.0205: real time    0.0214
    MIXING:  cpu time    0.0063: real time    0.0066
    --------------------------------------------
      LOOP:  cpu time    0.3936: real time    0.4096

 eigenvalue-minimisations  :    64
 total energy-change (2. order) :-0.2040339E-03  (-0.8360817E-05)
 number of electron       8.0000000 magnetization 
 augmentation part        0.1818182 magnetization 

 Broyden mixing:
  rms(total) = 0.28256E-03    rms(broyden)= 0.28205E-03
  rms(prec ) = 0.45272E-03
  weight for this iteration     100.00

 eigenvalues of (default mixing * dielectric matrix)
  average eigenvalue GAMMA=   2.5297
  7.8348  4.8958  3.3528  2.4319  1.9952  1.9952  1.2273  1.2273  1.0109  0.9279
  0.9279

 Free energy of the ion-electron system (eV)
  ---------------------------------------------------
  alpha Z        PSCENC =         0.23431334
  Ewald energy   TEWEN  =       127.20743752
  -Hartree energ DENC   =      -283.26625348
  -exchange      EXHF   =         0.00000000
  -V(xc)+E(xc)   XCENC  =        24.60339967
  PAW double counting   =       449.82413222     -450.60143525
  entropy T*S    EENTRO =        -0.00000000
  eigenvalues    EBANDS =       -89.04094499
  atomic energy  EATOM  =       197.04175453
  Solvation  Ediel_sol  =         0.00000000
  ---------------------------------------------------
  free energy    TOTEN  =       -23.99759643 eV

  energy without entropy =      -23.99759643  energy(sigma->0) =      -23.99759643


--------------------------------------------------------------------------------------------------------




--------------------------------------- Iteration      1(  17)  ---------------------------------------


    POTLOK:  cpu time    0.1439: real time    0.1521
    SETDIJ:  cpu time    0.0019: real time    0.0019
    EDDIAG:  cpu time    0.0448: real time    0.0467
  RMM-DIIS:  cpu time    0.1757: real time    0.1833
    ORTHCH:  cpu time    0.0015: real time    0.0015
       DOS:  cpu time    0.0002: real time    0.0002
    CHARGE:  cpu time    0.0209: real time    0.0218
    MIXING:  cpu time    0.0065: real time    0.0066
    --------------------------------------------
      LOOP:  cpu time    0.3951: real time    0.4141

 eigenvalue-minimisations  :    64
 total energy-change (2. order) :-0.4913910E-04  (-0.9545097E-06)
 number of electron       8.0000000 magnetization 
 augmentation part        0.1818038 magnetization 

 Broyden mixing:
  rms(total) = 0.35104E-03    rms(broyden)= 0.35103E-03
  rms(prec ) = 0.49018E-03
  weight for this iteration     100.00

 eigenvalues of (default mixing * dielectric matrix)
  average eigenvalue GAMMA=   2.5988
  8.5049  5.3162  3.8893  2.5393  2.5393  1.9208  1.2704  1.2704  1.0867  0.9857
  0.9315  0.9315

 Free energy of the ion-electron system (eV)
  ---------------------------------------------------
  alpha Z        PSCENC =         0.23431334
  Ewald energy   TEWEN  =       127.20743752
  -Hartree energ DENC   =      -283.29848708
  -exchange      EXHF   =         0.00000000
  -V(xc)+E(xc)   XCENC  =        24.60489553
  PAW double counting   =       449.82162834     -450.59912257
  entropy T*S    EENTRO =        -0.00000000
  eigenvalues    EBANDS =       -89.01006518
  atomic energy  EATOM  =       197.04175453
  Solvation  Ediel_sol  =         0.00000000
  ---------------------------------------------------
  free energy    TOTEN  =       -23.99764557 eV

  energy without entropy =      -23.99764557  energy(sigma->0) =      -23.99764557


--------------------------------------------------------------------------------------------------------




--------------------------------------- Iteration      1(  18)  ---------------------------------------


    POTLOK:  cpu time    0.1474: real time    0.1524
    SETDIJ:  cpu time    0.0022: real time    0.0022
    EDDIAG:  cpu time    0.0464: real time    0.0469
  RMM-DIIS:  cpu time    0.1689: real time    0.1704
    ORTHCH:  cpu time    0.0016: real time    0.0016
       DOS:  cpu time    0.0002: real time    0.0002
    CHARGE:  cpu time    0.0213: real time    0.0216
    MIXING:  cpu time    0.0068: real time    0.0068
    --------------------------------------------
      LOOP:  cpu time    0.3948: real time    0.4022

 eigenvalue-minimisations  :    60
 total energy-change (2. order) :-0.9703809E-05  (-0.3224664E-06)
 number of electron       8.0000000 magnetization 
 augmentation part        0.1818152 magnetization 

 Broyden mixing:
  rms(total) = 0.11652E-03    rms(broyden)= 0.11643E-03
  rms(prec ) = 0.14968E-03
  weight for this iteration     100.00

 eigenvalues of (default mixing * dielectric matrix)
  average eigenvalue GAMMA=   2.5956
  8.5938  5.4638  3.9343  2.7736  2.3321  2.1489  2.1489  1.2355  1.2355  0.8966
  1.0140  0.9826  0.9826

 Free energy of the ion-electron system (eV)
  ---------------------------------------------------
  alpha Z        PSCENC =         0.23431334
  Ewald energy   TEWEN  =       127.20743752
  -Hartree energ DENC   =      -283.28454534
  -exchange      EXHF   =         0.00000000
  -V(xc)+E(xc)   XCENC  =        24.60426723
  PAW double counting   =       449.84244614     -450.61981529
  entropy T*S    EENTRO =        -0.00000000
  eigenvalues    EBANDS =       -89.02351340
  atomic energy  EATOM  =       197.04175453
  Solvation  Ediel_sol  =         0.00000000
  ---------------------------------------------------
  free energy    TOTEN  =       -23.99765528 eV

  energy without entropy =      -23.99765528  energy(sigma->0) =      -23.99765528


--------------------------------------------------------------------------------------------------------




--------------------------------------- Iteration      1(  19)  ---------------------------------------


    POTLOK:  cpu time    0.1505: real time    0.1528
    SETDIJ:  cpu time    0.0021: real time    0.0021
    EDDIAG:  cpu time    0.0451: real time    0.0456
  RMM-DIIS:  cpu time    0.1411: real time    0.1433
    ORTHCH:  cpu time    0.0015: real time    0.0015
       DOS:  cpu time    0.0002: real time    0.0002
    CHARGE:  cpu time    0.0216: real time    0.0217
    MIXING:  cpu time    0.0071: real time    0.0072
    --------------------------------------------
      LOOP:  cpu time    0.3692: real time    0.3744

 eigenvalue-minimisations  :    48
 total energy-change (2. order) :-0.4301743E-05  (-0.5675939E-07)
 number of electron       8.0000000 magnetization 
 augmentation part        0.1818186 magnetization 

 Broyden mixing:
  rms(total) = 0.18541E-03    rms(broyden)= 0.18539E-03
  rms(prec ) = 0.24642E-03
  weight for this iteration     100.00

 eigenvalues of (default mixing * dielectric matrix)
  average eigenvalue GAMMA=   2.5691
  8.6477  5.6137  3.9616  3.6091  2.4161  2.4161  1.9963  1.2504  1.2504  1.0500
  0.8926  0.9671  0.9482  0.9482

 Free energy of the ion-electron system (eV)
  ---------------------------------------------------
  alpha Z        PSCENC =         0.23431334
  Ewald energy   TEWEN  =       127.20743752
  -Hartree energ DENC   =      -283.27944889
  -exchange      EXHF   =         0.00000000
  -V(xc)+E(xc)   XCENC  =        24.60388276
  PAW double counting   =       449.82422536     -450.60157886
  entropy T*S    EENTRO =        -0.00000000
  eigenvalues    EBANDS =       -89.02824533
  atomic energy  EATOM  =       197.04175453
  Solvation  Ediel_sol  =         0.00000000
  ---------------------------------------------------
  free energy    TOTEN  =       -23.99765958 eV

  energy without entropy =      -23.99765958  energy(sigma->0) =      -23.99765958


--------------------------------------------------------------------------------------------------------




--------------------------------------- Iteration      1(  20)  ---------------------------------------


    POTLOK:  cpu time    0.1489: real time    0.1521
    SETDIJ:  cpu time    0.0021: real time    0.0021
    EDDIAG:  cpu time    0.0454: real time    0.0459
  RMM-DIIS:  cpu time    0.1378: real time    0.1485
    ORTHCH:  cpu time    0.0015: real time    0.0015
       DOS:  cpu time    0.0002: real time    0.0002
    --------------------------------------------
      LOOP:  cpu time    0.3360: real time    0.3503

 eigenvalue-minimisations  :    48
 total energy-change (2. order) :-0.3465489E-06  (-0.4111297E-07)
 number of electron       8.0000000 magnetization 
 augmentation part        0.1818186 magnetization 

 Free energy of the ion-electron system (eV)
  ---------------------------------------------------
  alpha Z        PSCENC =         0.23431334
  Ewald energy   TEWEN  =       127.20743752
  -Hartree energ DENC   =      -283.28399554
  -exchange      EXHF   =         0.00000000
  -V(xc)+E(xc)   XCENC  =        24.60407333
  PAW double counting   =       449.82085523     -450.59826509
  entropy T*S    EENTRO =        -0.00000000
  eigenvalues    EBANDS =       -89.02383325
  atomic energy  EATOM  =       197.04175453
  Solvation  Ediel_sol  =         0.00000000
  ---------------------------------------------------
  free energy    TOTEN  =       -23.99765993 eV

  energy without entropy =      -23.99765993  energy(sigma->0) =      -23.99765993


--------------------------------------------------------------------------------------------------------




 average (electrostatic) potential at core
  the test charge radii are     0.5201  0.6991
  (the norm of the test charge is              1.0000)
       1 -41.4514       2 -41.3584       3 -41.2807       4 -41.6027       5 -58.0455
 
 
 
 E-fermi :  -8.2651     XC(G=0):  -0.6838     alpha+bet : -0.2038


 k-point     1 :       0.2500    0.2500    0.2500
  band No.  band energies     occupation 
      1     -16.7942      2.00000
      2      -9.2752      2.00000
      3      -9.2356      2.00000
      4      -9.2067      2.00000
      5      -0.3383      0.00000
      6       0.5407      0.00000
      7       0.6528      0.00000
      8       0.6898      0.00000

 k-point     2 :      -0.2500    0.2500    0.2500
  band No.  band energies     occupation 
      1     -16.7942      2.00000
      2      -9.2754      2.00000
      3      -9.2356      2.00000
      4      -9.2068      2.00000
      5      -0.3381      0.00000
      6       0.5342      0.00000
      7       0.6483      0.00000
      8       0.6936      0.00000

 k-point     3 :       0.2500   -0.2500    0.2500
  band No.  band energies     occupation 
      1     -16.7943      2.00000
      2      -9.2753      2.00000
      3      -9.2356      2.00000
      4      -9.2068      2.00000
      5      -0.3336      0.00000
      6       0.5280      0.00000
      7       0.6401      0.00000
      8       0.6763      0.00000

 k-point     4 :      -0.2500   -0.2500    0.2500
  band No.  band energies     occupation 
      1     -16.7943      2.00000
      2      -9.2753      2.00000
      3      -9.2356      2.00000
      4      -9.2067      2.00000
      5      -0.3378      0.00000
      6       0.5396      0.00000
      7       0.6530      0.00000
      8       0.6863      0.00000


--------------------------------------------------------------------------------------------------------


 soft charge-density along one line, spin component           1
         0         1         2         3         4         5         6         7         8         9
 total charge-density along one line
 
 pseudopotential strength for first ion, spin component:           1
 -2.341  -4.033  -0.001  -0.001   0.001
 -4.033  -6.864  -0.003  -0.004   0.002
 -0.001  -0.003  -0.338   0.002  -0.001
 -0.001  -0.004   0.002  -0.336  -0.001
  0.001   0.002  -0.001  -0.001  -0.339
 total augmentation occupancy for first ion, spin component:           1
  3.517  -0.634   0.241   0.319  -0.135
 -0.634   0.128  -0.045  -0.059   0.025
  0.241  -0.045   0.022   0.018  -0.008
  0.319  -0.059   0.018   0.033  -0.010
 -0.135   0.025  -0.008  -0.010   0.013


------------------------ aborting loop because EDIFF is reached ----------------------------------------


    CHARGE:  cpu time    0.0214: real time    0.0218
    FORLOC:  cpu time    0.0145: real time    0.0145
    FORNL :  cpu time    0.0220: real time    0.0221
    STRESS:  cpu time    0.1673: real time    0.1691
    FORCOR:  cpu time    0.1530: real time    0.1543
    FORHAR:  cpu time    0.0469: real time    0.0474
    MIXING:  cpu time    0.0069: real time    0.0070
    OFIELD:  cpu time    0.0000: real time    0.0000

  FORCE on cell =-STRESS in cart. coord.  units (eV):
  Direction    XX          YY          ZZ          XY          YZ          ZX
  --------------------------------------------------------------------------------------
  Alpha Z     0.23431     0.23431     0.23431
  Ewald      40.70256    41.41309    45.09176     0.32513     0.14662    -0.43520
  Hartree    93.14723    93.55858    96.58078     0.51123     0.40825    -0.34071
  E(xc)     -27.05734   -27.05628   -27.07252     0.00573     0.00306    -0.00288
  Local    -192.99453  -194.01827  -200.21710    -1.01272    -0.71930     0.79633
  n-local   -15.54153   -15.54138   -15.68189     0.04877     0.03288    -0.01543
  augment     0.12451     0.12341     0.11741     0.00209     0.00199    -0.00054
  Kinetic   100.00897    99.93073   100.83648    -0.31410    -0.16424     0.15018
  Fock        0.00000     0.00000     0.00000     0.00000     0.00000     0.00000
  -------------------------------------------------------------------------------------
  Total      -1.37581    -1.35579    -0.11076    -0.43387    -0.29074     0.15175
  in kB      -2.13206    -2.10104    -0.17163    -0.67236    -0.45056     0.23517
  external pressure =       -1.47 kB  Pullay stress =        0.00 kB

  kinetic pressure (ideal gas correction) =      0.00 kB
  total pressure  =     -1.47 kB
  Total+kin.    -2.132      -2.101      -0.172      -0.672      -0.451       0.235

 VOLUME and BASIS-vectors are now :
 -----------------------------------------------------------------------------
  energy-cutoff  :      400.00
  volume of cell :     1033.88
      direct lattice vectors                 reciprocal lattice vectors
    10.240866550  0.000000000  0.000000000     0.097647987 -0.001499784  0.001175243
     0.156825618 10.210610367  0.000000000     0.000000000  0.097937338 -0.001526441
    -0.116632329  0.154103150  9.887347172     0.000000000  0.000000000  0.101139364

  length of vectors
    10.240866550 10.211814644  9.889235814     0.097666575  0.097949233  0.101139364


 FORCES acting on ions
    electron-ion (+dipol)            ewald-force                    non-local-force                 convergence-correction
 -----------------------------------------------------------------------------------------------
   -.167E+02 0.297E+02 0.396E+02   0.184E+02 -.326E+02 -.435E+02   -.172E+01 0.309E+01 0.406E+01   0.690E-04 -.131E-03 -.135E-03
   0.513E+02 -.602E+01 0.328E+01   -.557E+02 0.661E+01 -.362E+01   0.516E+01 -.578E+00 0.314E+00   -.211E-03 0.143E-04 -.721E-05
   -.233E+02 -.455E+02 0.127E+01   0.251E+02 0.490E+02 -.140E+01   -.230E+01 -.446E+01 0.114E+00   0.995E-04 0.180E-03 0.578E-06
   -.114E+02 0.247E+02 -.457E+02   0.128E+02 -.275E+02 0.510E+02   -.121E+01 0.266E+01 -.488E+01   0.470E-04 -.107E-03 0.163E-03
   0.384E+00 -.384E+01 0.209E+01   -.482E+00 0.443E+01 -.245E+01   -.824E-01 0.218E+00 -.145E+00   0.584E-05 -.893E-04 0.464E-04
 -----------------------------------------------------------------------------------------------
   0.163E+00 -.920E+00 0.537E+00   0.178E-14 -.355E-14 0.000E+00   -.163E+00 0.920E+00 -.538E+00   0.105E-04 -.132E-03 0.678E-04
 
 
 POSITION                                       TOTAL-FORCE (eV/Angst)
 -----------------------------------------------------------------------------------
      5.53086      4.20938      3.56301        -0.089495      0.227094      0.127539
      4.06866      4.96744      4.32924         0.666458      0.014154     -0.018293
      5.69436      5.84630      4.37202        -0.516875     -0.911747     -0.009452
      5.41016      4.33592      5.33071         0.119744     -0.138247      0.401533
      5.17760      4.83976      4.39902        -0.180093      0.808607     -0.501442
 -----------------------------------------------------------------------------------
    total drift:                               -0.000261     -0.000138     -0.000116


--------------------------------------------------------------------------------------------------------



  FREE ENERGIE OF THE ION-ELECTRON SYSTEM (eV)
  ---------------------------------------------------
  free  energy   TOTEN  =       -23.99765993 eV

  energy  without entropy=      -23.99765993  energy(sigma->0) =      -23.99765993
 


--------------------------------------------------------------------------------------------------------


    POTLOK:  cpu time    0.1503: real time    0.1521


--------------------------------------------------------------------------------------------------------


 stress matrix after NEB project (eV)
     -1.37581     -0.43387      0.15175
     -0.43387     -1.35579     -0.29074
      0.15175     -0.29074     -0.11076
  FORCES: max atom, RMS     1.048109    0.741820
  FORCE total and by dimension    1.658759    0.911747
  Stress total and by dimension    2.082039    1.375806
           RANDOM_SEED =         581336003                0                0
           RANDOM_SEED =         581336003               30                0
   IONSTEP:  cpu time    0.0036: real time    0.0074

  ENERGY OF THE ELECTRON-ION-THERMOSTAT SYSTEM (eV)
  ---------------------------------------------------
% ion-electron   TOTEN  =       -23.997660  see above
  kinetic energy EKIN   =         0.000574
  kin. lattice  EKIN_LAT=         0.000000  (temperature    1.11 K)
  nose potential ES     =         0.000000
  nose kinetic   EPS    =         0.000000
  ---------------------------------------------------
  total energy   ETOTAL =       -23.997086 eV

  maximum distance moved by ions :      0.25E-03

    WAVPRE:  cpu time    0.0449: real time    0.0454
    FEWALD:  cpu time    0.0004: real time    0.0004
    ORTHCH:  cpu time    0.0090: real time    0.0091
     LOOP+:  cpu time    8.0287: real time    8.3450


--------------------------------------- Iteration      2(   1)  ---------------------------------------


    POTLOK:  cpu time    0.1525: real time    0.1539
    SETDIJ:  cpu time    0.0020: real time    0.0020
     EDDAV:  cpu time    0.2249: real time    0.2274
       DOS:  cpu time    0.0002: real time    0.0002
    CHARGE:  cpu time    0.0204: real time    0.0208
    MIXING:  cpu time    0.0072: real time    0.0073
    --------------------------------------------
      LOOP:  cpu time    0.4074: real time    0.4117

 eigenvalue-minimisations  :    96
 total energy-change (2. order) :-0.4424444E-02  (-0.4867538E-03)
 number of electron       8.0000000 magnetization 
 augmentation part        0.1821276 magnetization 

 Broyden mixing:
  rms(total) = 0.32935E-02    rms(broyden)= 0.32907E-02
  rms(prec ) = 0.41132E-02
  weight for this iteration     100.00

 Free energy of the ion-electron system (eV)
  ---------------------------------------------------
  alpha Z        PSCENC =         0.23431334
  Ewald energy   TEWEN  =       127.40816348
  -Hartree energ DENC   =      -283.40814752
  -exchange      EXHF   =         0.00000000
  -V(xc)+E(xc)   XCENC  =        24.61027987
  PAW double counting   =       449.81267878     -450.59009694
  entropy T*S    EENTRO =        -0.00000000
  eigenvalues    EBANDS =       -89.11102957
  atomic energy  EATOM  =       197.04175453
  Solvation  Ediel_sol  =         0.00000000
  ---------------------------------------------------
  free energy    TOTEN  =       -24.00208402 eV

  energy without entropy =      -24.00208402  energy(sigma->0) =      -24.00208402


--------------------------------------------------------------------------------------------------------




--------------------------------------- Iteration      2(   2)  ---------------------------------------


    POTLOK:  cpu time    0.1561: real time    0.1575
    SETDIJ:  cpu time    0.0019: real time    0.0019
    EDDIAG:  cpu time    0.0445: real time    0.0450
  RMM-DIIS:  cpu time    0.1752: real time    0.1780
    ORTHCH:  cpu time    0.0018: real time    0.0018
       DOS:  cpu time    0.0002: real time    0.0002
    CHARGE:  cpu time    0.0213: real time    0.0216
    MIXING:  cpu time    0.0049: real time    0.0049
    --------------------------------------------
      LOOP:  cpu time    0.4059: real time    0.4110

 eigenvalue-minimisations  :    64
 total energy-change (2. order) : 0.1749337E-04  (-0.1216269E-04)
 number of electron       8.0000000 magnetization 
 augmentation part        0.1820792 magnetization 

 Broyden mixing:
  rms(total) = 0.17548E-02    rms(broyden)= 0.17544E-02
  rms(prec ) = 0.20688E-02
  weight for this iteration     100.00

 eigenvalues of (default mixing * dielectric matrix)
  average eigenvalue GAMMA=   1.7241
  1.7241

 Free energy of the ion-electron system (eV)
  ---------------------------------------------------
  alpha Z        PSCENC =         0.23431334
  Ewald energy   TEWEN  =       127.40816348
  -Hartree energ DENC   =      -283.44971729
  -exchange      EXHF   =         0.00000000
  -V(xc)+E(xc)   XCENC  =        24.61247155
  PAW double counting   =       450.26015344     -451.03804890
  entropy T*S    EENTRO =        -0.00000000
  eigenvalues    EBANDS =       -89.07115668
  atomic energy  EATOM  =       197.04175453
  Solvation  Ediel_sol  =         0.00000000
  ---------------------------------------------------
  free energy    TOTEN  =       -24.00206653 eV

  energy without entropy =      -24.00206653  energy(sigma->0) =      -24.00206653


--------------------------------------------------------------------------------------------------------




--------------------------------------- Iteration      2(   3)  ---------------------------------------


    POTLOK:  cpu time    0.1568: real time    0.1583
    SETDIJ:  cpu time    0.0019: real time    0.0019
    EDDIAG:  cpu time    0.0454: real time    0.0459
  RMM-DIIS:  cpu time    0.1759: real time    0.1781
    ORTHCH:  cpu time    0.0015: real time    0.0016
       DOS:  cpu time    0.0002: real time    0.0002
    CHARGE:  cpu time    0.0214: real time    0.0216
    MIXING:  cpu time    0.0049: real time    0.0050
    --------------------------------------------
      LOOP:  cpu time    0.4081: real time    0.4125

 eigenvalue-minimisations  :    64
 total energy-change (2. order) : 0.9620242E-06  (-0.3347601E-05)
 number of electron       8.0000000 magnetization 
 augmentation part        0.1820416 magnetization 

 Broyden mixing:
  rms(total) = 0.65493E-03    rms(broyden)= 0.65466E-03
  rms(prec ) = 0.75968E-03
  weight for this iteration     100.00

 eigenvalues of (default mixing * dielectric matrix)
  average eigenvalue GAMMA=   1.6585
  1.6585  1.6585

 Free energy of the ion-electron system (eV)
  ---------------------------------------------------
  alpha Z        PSCENC =         0.23431334
  Ewald energy   TEWEN  =       127.40816348
  -Hartree energ DENC   =      -283.47200722
  -exchange      EXHF   =         0.00000000
  -V(xc)+E(xc)   XCENC  =        24.61373461
  PAW double counting   =       450.67836937     -451.45652743
  entropy T*S    EENTRO =        -0.00000000
  eigenvalues    EBANDS =       -89.04986624
  atomic energy  EATOM  =       197.04175453
  Solvation  Ediel_sol  =         0.00000000
  ---------------------------------------------------
  free energy    TOTEN  =       -24.00206557 eV

  energy without entropy =      -24.00206557  energy(sigma->0) =      -24.00206557


--------------------------------------------------------------------------------------------------------




--------------------------------------- Iteration      2(   4)  ---------------------------------------


    POTLOK:  cpu time    0.1578: real time    0.1610
    SETDIJ:  cpu time    0.0019: real time    0.0020
    EDDIAG:  cpu time    0.0450: real time    0.0454
  RMM-DIIS:  cpu time    0.1422: real time    0.1439
    ORTHCH:  cpu time    0.0017: real time    0.0017
       DOS:  cpu time    0.0002: real time    0.0002
    --------------------------------------------
      LOOP:  cpu time    0.3488: real time    0.3541

 eigenvalue-minimisations  :    48
 total energy-change (2. order) : 0.4817309E-08  (-0.1452052E-06)
 number of electron       8.0000000 magnetization 
 augmentation part        0.1820416 magnetization 

 Free energy of the ion-electron system (eV)
  ---------------------------------------------------
  alpha Z        PSCENC =         0.23431334
  Ewald energy   TEWEN  =       127.40816348
  -Hartree energ DENC   =      -283.46404110
  -exchange      EXHF   =         0.00000000
  -V(xc)+E(xc)   XCENC  =        24.61345184
  PAW double counting   =       450.81338692     -451.59143242
  entropy T*S    EENTRO =        -0.00000000
  eigenvalues    EBANDS =       -89.05766215
  atomic energy  EATOM  =       197.04175453
  Solvation  Ediel_sol  =         0.00000000
  ---------------------------------------------------
  free energy    TOTEN  =       -24.00206556 eV

  energy without entropy =      -24.00206556  energy(sigma->0) =      -24.00206556


--------------------------------------------------------------------------------------------------------




 average (electrostatic) potential at core
  the test charge radii are     0.5201  0.6991
  (the norm of the test charge is              1.0000)
       1 -41.4544       2 -41.3686       3 -41.2966       4 -41.5914       5 -58.0400
 
 
 
 E-fermi :  -8.2727     XC(G=0):  -0.6955     alpha+bet : -0.2038


 k-point     1 :       0.2500    0.2500    0.2500
  band No.  band energies     occupation 
      1     -16.8003      2.00000
      2      -9.2724      2.00000
      3      -9.2401      2.00000
      4      -9.2159      2.00000
      5      -0.3401      0.00000
      6       0.5324      0.00000
      7       0.6475      0.00000
      8       0.6815      0.00000

 k-point     2 :      -0.2500    0.2500    0.2500
  band No.  band energies     occupation 
      1     -16.8003      2.00000
      2      -9.2725      2.00000
      3      -9.2401      2.00000
      4      -9.2160      2.00000
      5      -0.3400      0.00000
      6       0.5270      0.00000
      7       0.6430      0.00000
      8       0.6844      0.00000

 k-point     3 :       0.2500   -0.2500    0.2500
  band No.  band energies     occupation 
      1     -16.8003      2.00000
      2      -9.2725      2.00000
      3      -9.2401      2.00000
      4      -9.2160      2.00000
      5      -0.3352      0.00000
      6       0.5203      0.00000
      7       0.6345      0.00000
      8       0.6671      0.00000

 k-point     4 :      -0.2500   -0.2500    0.2500
  band No.  band energies     occupation 
      1     -16.8003      2.00000
      2      -9.2725      2.00000
      3      -9.2401      2.00000
      4      -9.2159      2.00000
      5      -0.3396      0.00000
      6       0.5316      0.00000
      7       0.6478      0.00000
      8       0.6774      0.00000


--------------------------------------------------------------------------------------------------------


 soft charge-density along one line, spin component           1
         0         1         2         3         4         5         6         7         8         9
 total charge-density along one line
 
 pseudopotential strength for first ion, spin component:           1
 -2.341  -4.033  -0.001  -0.001   0.001
 -4.033  -6.864  -0.003  -0.004   0.002
 -0.001  -0.003  -0.338   0.002  -0.001
 -0.001  -0.004   0.002  -0.336  -0.001
  0.001   0.002  -0.001  -0.001  -0.339
 total augmentation occupancy for first ion, spin component:           1
  3.519  -0.635   0.241   0.319  -0.135
 -0.635   0.128  -0.045  -0.059   0.025
  0.241  -0.045   0.022   0.018  -0.008
  0.319  -0.059   0.018   0.033  -0.010
 -0.135   0.025  -0.008  -0.010   0.013


------------------------ aborting loop because EDIFF is reached ----------------------------------------


    CHARGE:  cpu time    0.0213: real time    0.0217
    FORLOC:  cpu time    0.0145: real time    0.0145
    FORNL :  cpu time    0.0216: real time    0.0216
    STRESS:  cpu time    0.1640: real time    0.1652
    FORCOR:  cpu time    0.1536: real time    0.1549
    FORHAR:  cpu time    0.0497: real time    0.0508
    MIXING:  cpu time    0.0063: real time    0.0063
    OFIELD:  cpu time    0.0000: real time    0.0000

  FORCE on cell =-STRESS in cart. coord.  units (eV):
  Direction    XX          YY          ZZ          XY          YZ          ZX
  --------------------------------------------------------------------------------------
  Alpha Z     0.23431     0.23431     0.23431
  Ewald      40.80795    41.50763    45.09256     0.36008     0.17793    -0.44348
  Hartree    93.19105    93.60424    96.66851     0.49911     0.39947    -0.33547
  E(xc)     -27.06762   -27.06653   -27.08206     0.00550     0.00288    -0.00277
  Local    -193.11024  -194.13161  -200.33948    -1.01474    -0.72309     0.79221
  n-local   -15.56559   -15.56497   -15.69583     0.04555     0.03037    -0.01430
  augment     0.12390     0.12288     0.11750     0.00190     0.00178    -0.00045
  Kinetic   100.07894   100.00066   100.86933    -0.30242    -0.15583     0.14483
  Fock        0.00000     0.00000     0.00000     0.00000     0.00000     0.00000
  -------------------------------------------------------------------------------------
  Total      -1.30730    -1.29340    -0.13517    -0.40502    -0.26650     0.14057
  in kB      -2.02589    -2.00436    -0.20947    -0.62766    -0.41299     0.21784
  external pressure =       -1.41 kB  Pullay stress =        0.00 kB

  kinetic pressure (ideal gas correction) =      0.00 kB
  total pressure  =     -1.41 kB
  Total+kin.    -2.023      -2.001      -0.209      -0.626      -0.413       0.218

 VOLUME and BASIS-vectors are now :
 -----------------------------------------------------------------------------
  energy-cutoff  :      400.00
  volume of cell :     1033.88
      direct lattice vectors                 reciprocal lattice vectors
    10.240866550  0.000000000  0.000000000     0.097647987 -0.001499784  0.001175243
     0.156825618 10.210610367  0.000000000     0.000000000  0.097937338 -0.001526441
    -0.116632329  0.154103150  9.887347172     0.000000000  0.000000000  0.101139364

  length of vectors
    10.240866550 10.211814644  9.889235814     0.097666575  0.097949233  0.101139364


 FORCES acting on ions
    electron-ion (+dipol)            ewald-force                    non-local-force                 convergence-correction
 -----------------------------------------------------------------------------------------------
   -.167E+02 0.298E+02 0.396E+02   0.184E+02 -.326E+02 -.436E+02   -.173E+01 0.309E+01 0.407E+01   -.749E-04 0.345E-03 -.941E-04
   0.513E+02 -.603E+01 0.329E+01   -.559E+02 0.663E+01 -.363E+01   0.518E+01 -.581E+00 0.315E+00   -.150E-04 0.323E-03 -.174E-03
   -.234E+02 -.456E+02 0.127E+01   0.252E+02 0.492E+02 -.140E+01   -.232E+01 -.450E+01 0.115E+00   -.670E-04 0.318E-03 -.180E-03
   -.114E+02 0.246E+02 -.457E+02   0.128E+02 -.274E+02 0.509E+02   -.121E+01 0.265E+01 -.487E+01   -.115E-03 0.448E-03 -.468E-03
   0.351E+00 -.364E+01 0.197E+01   -.439E+00 0.419E+01 -.230E+01   -.745E-01 0.184E+00 -.122E+00   -.794E-04 0.607E-03 -.249E-03
 -----------------------------------------------------------------------------------------------
[...]
      5.66509      5.79639      4.37091         0.385778      0.771378     -0.027299
      5.41673      4.33068      5.35103        -0.064328      0.176052     -0.292499
      5.17686      4.84296      4.39711         0.131385     -0.948012      0.519698
 -----------------------------------------------------------------------------------
    total drift:                                0.000144      0.000051      0.000136


--------------------------------------------------------------------------------------------------------



  FREE ENERGIE OF THE ION-ELECTRON SYSTEM (eV)
  ---------------------------------------------------
  free  energy   TOTEN  =       -24.01190070 eV

  energy  without entropy=      -24.01190070  energy(sigma->0) =      -24.01190070
 
 d Force =-0.8555661E-02[-0.102E-01,-0.692E-02]  d Energy =-0.8543709E-02-0.120E-04
 d Force =-0.6956786E+00[-0.700E+00,-0.691E+00]  d Ewald  =-0.6956663E+00-0.123E-04


--------------------------------------------------------------------------------------------------------


    POTLOK:  cpu time    0.1522: real time    0.1543


--------------------------------------------------------------------------------------------------------


 stress matrix after NEB project (eV)
      0.34614      0.29620     -0.08357
      0.29620      0.31236      0.20931
     -0.08357      0.20931     -0.53429
  FORCES: max atom, RMS     1.089071    0.686392
  FORCE total and by dimension    1.534820    0.948012
  Stress total and by dimension    0.883119    0.534289
           RANDOM_SEED =         581336003               30                0
   IONSTEP:  cpu time    0.0002: real time    0.0002

  ENERGY OF THE ELECTRON-ION-THERMOSTAT SYSTEM (eV)
  ---------------------------------------------------
% ion-electron   TOTEN  =       -24.011901  see above
  kinetic energy EKIN   =         0.014541
  kin. lattice  EKIN_LAT=         0.000000  (temperature   28.12 K)
  nose potential ES     =         0.000000
  nose kinetic   EPS    =         0.000000
  ---------------------------------------------------
  total energy   ETOTAL =       -23.997360 eV

  maximum distance moved by ions :      0.52E-03

    WAVPRE:  cpu time    0.0513: real time    0.0519
    FEWALD:  cpu time    0.0004: real time    0.0004
    ORTHCH:  cpu time    0.0088: real time    0.0089
 Prediction of Wavefunctions ALPHA= 2.193 BETA=-1.236
     LOOP+:  cpu time    2.5179: real time    2.6064


--------------------------------------- Iteration     10(   1)  ---------------------------------------


    POTLOK:  cpu time    0.1547: real time    0.1556
    SETDIJ:  cpu time    0.0019: real time    0.0019
     EDDAV:  cpu time    0.1992: real time    0.2064
       DOS:  cpu time    0.0002: real time    0.0002
    CHARGE:  cpu time    0.0206: real time    0.0207
    MIXING:  cpu time    0.0050: real time    0.0051
    --------------------------------------------
      LOOP:  cpu time    0.3816: real time    0.3899

 eigenvalue-minimisations  :    80
 total energy-change (2. order) : 0.7989209E-02  (-0.6363634E-04)
 number of electron       8.0000002 magnetization 
 augmentation part        0.1883087 magnetization 

 Broyden mixing:
  rms(total) = 0.23581E-03    rms(broyden)= 0.23480E-03
  rms(prec ) = 0.26608E-03
  weight for this iteration     100.00

 Free energy of the ion-electron system (eV)
  ---------------------------------------------------
  alpha Z        PSCENC =         0.23431334
  Ewald energy   TEWEN  =       132.71231198
  -Hartree energ DENC   =      -288.12560781
  -exchange      EXHF   =         0.00000000
  -V(xc)+E(xc)   XCENC  =        24.86001356
  PAW double counting   =       483.01385494     -483.81061255
  entropy T*S    EENTRO =        -0.00000000
  eigenvalues    EBANDS =       -89.92993931
  atomic energy  EATOM  =       197.04175453
  Solvation  Ediel_sol  =         0.00000000
  ---------------------------------------------------
  free energy    TOTEN  =       -24.00391132 eV

  energy without entropy =      -24.00391132  energy(sigma->0) =      -24.00391132


--------------------------------------------------------------------------------------------------------




--------------------------------------- Iteration     10(   2)  ---------------------------------------


    POTLOK:  cpu time    0.1532: real time    0.1543
    SETDIJ:  cpu time    0.0021: real time    0.0021
    EDDIAG:  cpu time    0.0441: real time    0.0445
  RMM-DIIS:  cpu time    0.1768: real time    0.1781
    ORTHCH:  cpu time    0.0016: real time    0.0021
       DOS:  cpu time    0.0002: real time    0.0002
    CHARGE:  cpu time    0.0212: real time    0.0214
    MIXING:  cpu time    0.0050: real time    0.0051
    --------------------------------------------
      LOOP:  cpu time    0.4043: real time    0.4077

 eigenvalue-minimisations  :    64
 total energy-change (2. order) :-0.6825458E-06  (-0.6239704E-06)
 number of electron       8.0000002 magnetization 
 augmentation part        0.1883200 magnetization 

 Broyden mixing:
  rms(total) = 0.17571E-03    rms(broyden)= 0.17551E-03
  rms(prec ) = 0.18879E-03
  weight for this iteration     100.00

 eigenvalues of (default mixing * dielectric matrix)
  average eigenvalue GAMMA=   0.7936
  0.7936

 Free energy of the ion-electron system (eV)
  ---------------------------------------------------
  alpha Z        PSCENC =         0.23431334
  Ewald energy   TEWEN  =       132.71231198
  -Hartree energ DENC   =      -288.12398332
  -exchange      EXHF   =         0.00000000
  -V(xc)+E(xc)   XCENC  =        24.85991146
  PAW double counting   =       482.97397433     -483.77068129
  entropy T*S    EENTRO =        -0.00000000
  eigenvalues    EBANDS =       -89.93151304
  atomic energy  EATOM  =       197.04175453
  Solvation  Ediel_sol  =         0.00000000
  ---------------------------------------------------
  free energy    TOTEN  =       -24.00391200 eV

  energy without entropy =      -24.00391200  energy(sigma->0) =      -24.00391200


--------------------------------------------------------------------------------------------------------




--------------------------------------- Iteration     10(   3)  ---------------------------------------


    POTLOK:  cpu time    0.2199: real time    0.2232
    SETDIJ:  cpu time    0.0021: real time    0.0021
    EDDIAG:  cpu time    0.0403: real time    0.0492
  RMM-DIIS:  cpu time    0.1390: real time    0.1483
    ORTHCH:  cpu time    0.0015: real time    0.0015
       DOS:  cpu time    0.0002: real time    0.0002
    CHARGE:  cpu time    0.0215: real time    0.0217
    MIXING:  cpu time    0.0049: real time    0.0050
    --------------------------------------------
      LOOP:  cpu time    0.4295: real time    0.4512

 eigenvalue-minimisations  :    48
 total energy-change (2. order) :-0.1443607E-06  (-0.1396657E-07)
 number of electron       8.0000002 magnetization 
 augmentation part        0.1883213 magnetization 

 Broyden mixing:
  rms(total) = 0.12384E-03    rms(broyden)= 0.12382E-03
  rms(prec ) = 0.13138E-03
  weight for this iteration     100.00

 eigenvalues of (default mixing * dielectric matrix)
  average eigenvalue GAMMA=   1.7183
  1.1216  2.3150

 Free energy of the ion-electron system (eV)
  ---------------------------------------------------
  alpha Z        PSCENC =         0.23431334
  Ewald energy   TEWEN  =       132.71231198
  -Hartree energ DENC   =      -288.12357220
  -exchange      EXHF   =         0.00000000
  -V(xc)+E(xc)   XCENC  =        24.85989996
  PAW double counting   =       482.93315614     -483.72985348
  entropy T*S    EENTRO =        -0.00000000
  eigenvalues    EBANDS =       -89.93192241
  atomic energy  EATOM  =       197.04175453
  Solvation  Ediel_sol  =         0.00000000
  ---------------------------------------------------
  free energy    TOTEN  =       -24.00391215 eV

  energy without entropy =      -24.00391215  energy(sigma->0) =      -24.00391215


--------------------------------------------------------------------------------------------------------




--------------------------------------- Iteration     10(   4)  ---------------------------------------


    POTLOK:  cpu time    0.1554: real time    0.1578
    SETDIJ:  cpu time    0.0022: real time    0.0022
    EDDIAG:  cpu time    0.0442: real time    0.0446
  RMM-DIIS:  cpu time    0.1413: real time    0.1422
    ORTHCH:  cpu time    0.0015: real time    0.0016
       DOS:  cpu time    0.0002: real time    0.0002
    --------------------------------------------
      LOOP:  cpu time    0.3448: real time    0.3485

 eigenvalue-minimisations  :    43
 total energy-change (2. order) :-0.3878816E-06  (-0.6148380E-08)
 number of electron       8.0000002 magnetization 
 augmentation part        0.1883213 magnetization 

 Free energy of the ion-electron system (eV)
  ---------------------------------------------------
  alpha Z        PSCENC =         0.23431334
  Ewald energy   TEWEN  =       132.71231198
  -Hartree energ DENC   =      -288.12339797
  -exchange      EXHF   =         0.00000000
  -V(xc)+E(xc)   XCENC  =        24.85991123
  PAW double counting   =       482.85289982     -483.64958790
  entropy T*S    EENTRO =        -0.00000000
  eigenvalues    EBANDS =       -89.93211757
  atomic energy  EATOM  =       197.04175453
  Solvation  Ediel_sol  =         0.00000000
  ---------------------------------------------------
  free energy    TOTEN  =       -24.00391253 eV

  energy without entropy =      -24.00391253  energy(sigma->0) =      -24.00391253


--------------------------------------------------------------------------------------------------------




 average (electrostatic) potential at core
  the test charge radii are     0.5201  0.6991
  (the norm of the test charge is              1.0000)
       1 -41.5308       2 -41.6342       3 -41.7450       4 -41.3685       5 -57.9025
 
 
 
 E-fermi :  -8.2788     XC(G=0):  -0.6707     alpha+bet : -0.2038


 k-point     1 :       0.2500    0.2500    0.2500
  band No.  band energies     occupation 
      1     -16.9702      2.00000
      2      -9.4373      2.00000
      3      -9.3416      2.00000
      4      -9.2169      2.00000
      5      -0.3046      0.00000
      6       0.5645      0.00000
      7       0.6645      0.00000
      8       0.7013      0.00000

 k-point     2 :      -0.2500    0.2500    0.2500
  band No.  band energies     occupation 
      1     -16.9702      2.00000
      2      -9.4374      2.00000
      3      -9.3416      2.00000
      4      -9.2169      2.00000
      5      -0.3040      0.00000
      6       0.5543      0.00000
      7       0.6662      0.00000
      8       0.7010      0.00000

 k-point     3 :       0.2500   -0.2500    0.2500
  band No.  band energies     occupation 
      1     -16.9702      2.00000
      2      -9.4373      2.00000
      3      -9.3416      2.00000
      4      -9.2169      2.00000
      5      -0.2982      0.00000
      6       0.5410      0.00000
      7       0.6592      0.00000
      8       0.6840      0.00000

 k-point     4 :      -0.2500   -0.2500    0.2500
  band No.  band energies     occupation 
      1     -16.9702      2.00000
      2      -9.4373      2.00000
      3      -9.3416      2.00000
      4      -9.2169      2.00000
      5      -0.3037      0.00000
      6       0.5616      0.00000
      7       0.6666      0.00000
      8       0.6960      0.00000


--------------------------------------------------------------------------------------------------------


 soft charge-density along one line, spin component           1
         0         1         2         3         4         5         6         7         8         9
 total charge-density along one line
 
 pseudopotential strength for first ion, spin component:           1
 -2.341  -4.034  -0.001  -0.001   0.001
 -4.034  -6.866  -0.003  -0.004   0.002
 -0.001  -0.003  -0.337   0.002  -0.001
 -0.001  -0.004   0.002  -0.336  -0.001
  0.001   0.002  -0.001  -0.001  -0.338
 total augmentation occupancy for first ion, spin component:           1
  3.569  -0.641   0.248   0.332  -0.140
 -0.641   0.130  -0.046  -0.061   0.026
  0.248  -0.046   0.024   0.019  -0.008
  0.332  -0.061   0.019   0.035  -0.011
 -0.140   0.026  -0.008  -0.011   0.014


------------------------ aborting loop because EDIFF is reached ----------------------------------------


    CHARGE:  cpu time    0.0214: real time    0.0216
    FORLOC:  cpu time    0.0146: real time    0.0147
    FORNL :  cpu time    0.0215: real time    0.0216
    STRESS:  cpu time    0.1636: real time    0.1644
    FORCOR:  cpu time    0.1559: real time    0.1568
    FORHAR:  cpu time    0.0507: real time    0.0510
    MIXING:  cpu time    0.0055: real time    0.0055
    OFIELD:  cpu time    0.0000: real time    0.0000

  FORCE on cell =-STRESS in cart. coord.  units (eV):
  Direction    XX          YY          ZZ          XY          YZ          ZX
  --------------------------------------------------------------------------------------
  Alpha Z     0.23431     0.23431     0.23431
  Ewald      43.33580    43.77630    45.60018     1.04848     0.78471    -0.49635
  Hartree    94.38331    94.77975    98.96090     0.16605     0.20657    -0.19284
  E(xc)     -27.34012   -27.33948   -27.33637    -0.00100    -0.00088     0.00005
  Local    -195.98757  -196.81744  -203.83954    -0.85243    -0.75960     0.57598
  n-local   -16.20419   -16.19903   -16.09353    -0.03629    -0.02598     0.01124
  augment     0.10652     0.10661     0.11756    -0.00391    -0.00231     0.00110
  Kinetic   101.99224   101.95145   101.80008     0.04794     0.04598    -0.00338
  Fock        0.00000     0.00000     0.00000     0.00000     0.00000     0.00000
  -------------------------------------------------------------------------------------
  Total       0.52029     0.49247    -0.55641     0.36883     0.24849    -0.10419
  in kB       0.80629     0.76317    -0.86226     0.57157     0.38509    -0.16146
  external pressure =        0.24 kB  Pullay stress =        0.00 kB

  kinetic pressure (ideal gas correction) =      0.01 kB
  total pressure  =      0.25 kB
  Total+kin.     0.821       0.779      -0.860       0.582       0.386      -0.162

 VOLUME and BASIS-vectors are now :
 -----------------------------------------------------------------------------
  energy-cutoff  :      400.00
  volume of cell :     1033.88
      direct lattice vectors                 reciprocal lattice vectors
    10.240866550  0.000000000  0.000000000     0.097647987 -0.001499784  0.001175243
     0.156825618 10.210610367  0.000000000     0.000000000  0.097937338 -0.001526441
    -0.116632329  0.154103150  9.887347172     0.000000000  0.000000000  0.101139364

  length of vectors
    10.240866550 10.211814644  9.889235814     0.097666575  0.097949233  0.101139364


 FORCES acting on ions
    electron-ion (+dipol)            ewald-force                    non-local-force                 convergence-correction
 -----------------------------------------------------------------------------------------------
   -.171E+02 0.302E+02 0.405E+02   0.189E+02 -.335E+02 -.449E+02   -.179E+01 0.317E+01 0.424E+01   0.158E-04 -.182E-04 -.525E-04
   0.534E+02 -.645E+01 0.356E+01   -.597E+02 0.722E+01 -.398E+01   0.572E+01 -.679E+00 0.374E+00   -.508E-04 0.141E-04 -.201E-04
   -.248E+02 -.484E+02 0.138E+01   0.280E+02 0.547E+02 -.155E+01   -.272E+01 -.531E+01 0.146E+00   0.230E-04 0.559E-04 -.179E-04
   -.114E+02 0.242E+02 -.451E+02   0.125E+02 -.264E+02 0.493E+02   -.114E+01 0.244E+01 -.454E+01   0.134E-04 -.166E-04 0.299E-04
   -.335E+00 0.148E+01 -.873E+00   0.411E+00 -.201E+01 0.115E+01   0.753E-01 -.581E+00 0.320E+00   -.768E-05 0.663E-04 -.916E-04
 -----------------------------------------------------------------------------------------------
   -.150E+00 0.962E+00 -.534E+00   0.533E-14 0.000E+00 0.711E-14   0.150E+00 -.963E+00 0.534E+00   -.619E-05 0.101E-03 -.152E-03
 
 
 POSITION                                       TOTAL-FORCE (eV/Angst)
 -----------------------------------------------------------------------------------
      5.52528      4.22543      3.56897         0.074902     -0.119418     -0.179113
      4.10873      4.97107      4.32636        -0.632920      0.087827     -0.049384
      5.66208      5.79193      4.37054         0.484604      0.952330     -0.028378
      5.41748      4.33091      5.35274        -0.078517      0.191703     -0.338845
      5.17680      4.84306      4.39705         0.152081     -1.112589      0.595923
 -----------------------------------------------------------------------------------
    total drift:                                0.000151     -0.000147      0.000204


--------------------------------------------------------------------------------------------------------



  FREE ENERGIE OF THE ION-ELECTRON SYSTEM (eV)
  ---------------------------------------------------
  free  energy   TOTEN  =       -24.00391253 eV

  energy  without entropy=      -24.00391253  energy(sigma->0) =      -24.00391253
 
 d Force =-0.7994013E-02[-0.885E-02,-0.713E-02]  d Energy =-0.7988168E-02-0.585E-05
 d Force =-0.5225264E+00[-0.525E+00,-0.520E+00]  d Ewald  =-0.5225221E+00-0.433E-05


--------------------------------------------------------------------------------------------------------


    POTLOK:  cpu time    0.1567: real time    0.1577


--------------------------------------------------------------------------------------------------------


 stress matrix after NEB project (eV)
      0.52029      0.36883     -0.10419
      0.36883      0.49247      0.24849
     -0.10419      0.24849     -0.55641
  FORCES: max atom, RMS     1.271262    0.822084
  FORCE total and by dimension    1.838236    1.112589
  Stress total and by dimension    1.113600    0.556408
           RANDOM_SEED =         581336003               30                0
   IONSTEP:  cpu time    0.0002: real time    0.0002

  ENERGY OF THE ELECTRON-ION-THERMOSTAT SYSTEM (eV)
  ---------------------------------------------------
% ion-electron   TOTEN  =       -24.003913  see above
  kinetic energy EKIN   =         0.006736
  kin. lattice  EKIN_LAT=         0.000000  (temperature   13.03 K)
  nose potential ES     =         0.000000
  nose kinetic   EPS    =         0.000000
  ---------------------------------------------------
  total energy   ETOTAL =       -23.997176 eV

  maximum distance moved by ions :      0.28E-03


 mean value of Nose-termostat <S>:     1.000 mean value of <T> :    32.789
 mean temperature <T/S>/<1/S>  :    32.789

    WAVPRE:  cpu time    0.0555: real time    0.0561
    FEWALD:  cpu time    0.0004: real time    0.0004
    ORTHCH:  cpu time    0.0090: real time    0.0090
 Prediction of Wavefunctions ALPHA= 2.125 BETA=-1.154
    POTLOK:  cpu time    0.1596: real time    0.1625
    EDDIAG:  cpu time    0.0455: real time    0.0458
     LOOP+:  cpu time    2.4253: real time    2.4696
    4ORBIT:  cpu time    0.0000: real time    0.0008

 total amount of memory used by VASP MPI-rank0    56697. kBytes
=======================================================================

   base      :      30000. kBytes
   nonl-proj :       2780. kBytes
   fftplans  :       8575. kBytes
   grid      :      13527. kBytes
   one-center:          6. kBytes
   wavefun   :       1809. kBytes
 
  
  
 General timing and accounting informations for this job:
 ========================================================
  
                  Total CPU time used (sec):       32.561
                            User time (sec):       30.303
                          System time (sec):        2.258
                         Elapsed time (sec):       33.780
  
                   Maximum memory used (kb):      178328.
                   Average memory used (kb):           0.
  
                          Minor page faults:       261811
                          Major page faults:          120
                 Voluntary context switches:          562
