<?xml version="1.0" encoding="ISO-8859-1"?>
<modeling>
 <generator>
  <i name="program" type="string">vasp </i>
  <i name="version" type="string">5.4.4.18Apr17-6-g9f103f2a35  </i>
  <i name="subversion" type="string">(build Nov 25 2021 15:25:00) complex            parallel </i>
  <i name="platform" type="string">LinuxIFC </i>
  <i name="date" type="string">2022 02 21 </i>
  <i name="time" type="string">10:16:55 </i>
 </generator>
 <incar>
  <i type="string" name="PREC">a</i>
  <i type="string" name="ALGO">Fast</i>
  <i type="int" name="NELM">   120</i>
  <i type="int" name="NELMIN">     4</i>
  <i type="int" name="IBRION">     0</i>
  <i name="EDIFF">      0.00000100</i>
  <i type="int" name="NSW">    10</i>
  <i type="int" name="ISIF">     2</i>
  <i type="int" name="ISYM">     0</i>
  <i name="ENCUT">    400.00000000</i>
  <i name="POTIM">      0.50000000</i>
  <i type="logical" name="LREAL"> F  </i>
  <i type="int" name="ISMEAR">     0</i>
  <i name="SIGMA">      0.20000000</i>
  <i name="KSPACING">      0.50000000</i>
  <i type="logical" name="KGAMMA"> F  </i>
  <i name="PSTRESS">      0.00000000</i>
  <i type="logical" name="LWAVE"> F  </i>
  <i type="logical" name="LCHARG"> F  </i>
  <v type="int" name="KPOINT_BSE">    -1     0     0     0</v>
  <i type="int" name="NELM">   120</i>
 </incar>
 <structure name="primitive_cell" >
  <crystal>
   <varray name="basis" >
    <v>      10.24086655       0.00000000       0.00000000 </v>
    <v>       0.15682562      10.21061037       0.00000000 </v>
    <v>      -0.11663233       0.15410315       9.88734717 </v>
   </varray>
   <i name="volume">   1033.87538253 </i>
   <varray name="rec_basis" >
    <v>       0.09764799      -0.00149978       0.00117524 </v>
    <v>       0.00000000       0.09793734      -0.00152644 </v>
    <v>       0.00000000       0.00000000       0.10113936 </v>
   </varray>
  </crystal>
  <varray name="positions" >
   <v>      -0.46204874       0.40681638       0.36036050 </v>
   <v>      -0.49650694       0.46727815       0.44491385 </v>
   <v>      -0.47194658       0.41651182      -0.46085558 </v>
   <v>       0.39493457       0.47988990       0.43785684 </v>
   <v>      -0.44758687      -0.43410249       0.44218348 </v>
  </varray>
 </structure>
 <varray name="primitive_index" >
  <v type="int" >        1 </v>
  <v type="int" >        5 </v>
  <v type="int" >        4 </v>
  <v type="int" >        2 </v>
  <v type="int" >        3 </v>
 </varray>
 <kpoints>
  <generation param="Monkhorst-Pack">
   <v type="int" name="divisions">       2        2        2 </v>
   <v name="usershift">      0.00000000       0.00000000       0.00000000 </v>
   <v name="genvec1">      0.50000000       0.00000000       0.00000000 </v>
   <v name="genvec2">      0.00000000       0.50000000       0.00000000 </v>
   <v name="genvec3">      0.00000000       0.00000000       0.50000000 </v>
   <v name="shift">      0.50000000       0.50000000       0.50000000 </v>
  </generation>
  <varray name="kpointlist" >
   <v>       0.25000000       0.25000000       0.25000000 </v>
   <v>      -0.25000000       0.25000000       0.25000000 </v>
   <v>       0.25000000      -0.25000000       0.25000000 </v>
   <v>      -0.25000000      -0.25000000       0.25000000 </v>
  </varray>
  <varray name="weights" >
   <v>       0.25000000 </v>
   <v>       0.25000000 </v>
   <v>       0.25000000 </v>
   <v>       0.25000000 </v>
  </varray>
 </kpoints>
 <parameters>
  <separator name="general" >
   <i type="string" name="SYSTEM">unknown system</i>
   <i type="logical" name="LCOMPAT"> F  </i>
  </separator>
  <separator name="electronic" >
   <i type="string" name="PREC">a</i>
   <i name="ENMAX">    400.00000000</i>
   <i name="ENAUG">    644.87300000</i>
   <i name="EDIFF">      0.00000100</i>
   <i type="int" name="IALGO">    68</i>
   <i type="int" name="IWAVPR">    12</i>
   <i type="int" name="NBANDS">     8</i>
   <i name="NELECT">      8.00000000</i>
   <i type="int" name="TURBO">     0</i>
   <i type="int" name="IRESTART">     0</i>
   <i type="int" name="NREBOOT">     0</i>
   <i type="int" name="NMIN">     0</i>
   <i name="EREF">      0.00000000</i>
   <separator name="electronic smearing" >
    <i type="int" name="ISMEAR">     0</i>
    <i name="SIGMA">      0.20000000</i>
    <i name="KSPACING">      0.50000000</i>
    <i type="logical" name="KGAMMA"> F  </i>
   </separator>
   <separator name="electronic projectors" >
    <i type="logical" name="LREAL"> F  </i>
    <v name="ROPT">      0.00000000      0.00000000</v>
    <i type="int" name="LMAXPAW">  -100</i>
    <i type="int" name="LMAXMIX">     2</i>
    <i type="logical" name="NLSPLINE"> F  </i>
   </separator>
   <separator name="electronic startup" >
    <i type="int" name="ISTART">     0</i>
    <i type="int" name="ICHARG">     2</i>
    <i type="int" name="INIWAV">     1</i>
   </separator>
   <separator name="electronic spin" >
    <i type="int" name="ISPIN">     1</i>
    <i type="logical" name="LNONCOLLINEAR"> F  </i>
    <v name="MAGMOM">      1.00000000      1.00000000      1.00000000      1.00000000      1.00000000</v>
    <i name="NUPDOWN">     -1.00000000</i>
    <i type="logical" name="LSORBIT"> F  </i>
    <v name="SAXIS">      0.00000000      0.00000000      1.00000000</v>
    <i type="logical" name="LSPIRAL"> F  </i>
    <v name="QSPIRAL">      0.00000000      0.00000000      0.00000000</v>
    <i type="logical" name="LZEROZ"> F  </i>
   </separator>
   <separator name="electronic exchange-correlation" >
    <i type="logical" name="LASPH"> F  </i>
    <i type="logical" name="LMETAGGA"> F  </i>
   </separator>
   <separator name="electronic convergence" >
    <i type="int" name="NELM">   120</i>
    <i type="int" name="NELMDL">    -5</i>
    <i type="int" name="NELMIN">     4</i>
    <i name="ENINI">    400.00000000</i>
    <separator name="electronic convergence detail" >
     <i type="logical" name="LDIAG"> T  </i>
     <i type="logical" name="LSUBROT"> F  </i>
     <i name="WEIMIN">      0.00100000</i>
     <i name="EBREAK">      0.00000003</i>
     <i name="DEPER">      0.30000000</i>
     <i type="int" name="NRMM">     4</i>
     <i name="TIME">      0.40000000</i>
    </separator>
   </separator>
   <separator name="electronic mixer" >
    <i name="AMIX">      0.40000000</i>
    <i name="BMIX">      1.00000000</i>
    <i name="AMIN">      0.10000000</i>
    <i name="AMIX_MAG">      1.60000000</i>
    <i name="BMIX_MAG">      1.00000000</i>
    <separator name="electronic mixer details" >
     <i type="int" name="IMIX">     4</i>
     <i type="logical" name="MIXFIRST"> F  </i>
     <i type="int" name="MAXMIX">   -45</i>
     <i name="WC">    100.00000000</i>
     <i type="int" name="INIMIX">     1</i>
     <i type="int" name="MIXPRE">     1</i>
     <i type="int" name="MREMOVE">     5</i>
    </separator>
   </separator>
   <separator name="electronic dipolcorrection" >
    <i type="logical" name="LDIPOL"> F  </i>
    <i type="logical" name="LMONO"> F  </i>
    <i type="int" name="IDIPOL">     0</i>
    <i name="EPSILON">      1.00000000</i>
    <v name="DIPOL">   -100.00000000   -100.00000000   -100.00000000</v>
    <i name="EFIELD">      0.00000000</i>
   </separator>
  </separator>
  <separator name="grids" >
   <i type="int" name="NGX">    70</i>
   <i type="int" name="NGY">    70</i>
   <i type="int" name="NGZ">    70</i>
   <i type="int" name="NGXF">   140</i>
   <i type="int" name="NGYF">   140</i>
   <i type="int" name="NGZF">   140</i>
   <i type="logical" name="ADDGRID"> F  </i>
  </separator>
  <separator name="ionic" >
   <i type="int" name="NSW">    10</i>
   <i type="int" name="IBRION">     0</i>
   <i type="int" name="MDALGO">     0</i>
   <i type="int" name="ISIF">     2</i>
   <i name="PSTRESS">      0.00000000</i>
   <i name="EDIFFG">      0.00001000</i>
   <i type="int" name="NFREE">     0</i>
   <i name="POTIM">      0.50000000</i>
   <i name="SMASS">     -3.00000000</i>
   <i name="SCALEE">      1.00000000</i>
  </separator>
  <separator name="ionic md" >
   <i name="TEBEG">      0.00010000</i>
   <i name="TEEND">      0.00010000</i>
   <i type="int" name="NBLOCK">     1</i>
   <i type="int" name="KBLOCK">    10</i>
   <i type="int" name="NPACO">   256</i>
   <i name="APACO">     16.00000000</i>
  </separator>
  <separator name="symmetry" >
   <i type="int" name="ISYM">     0</i>
   <i name="SYMPREC">      0.00001000</i>
  </separator>
  <separator name="dos" >
   <i type="int" name="LORBIT">     0</i>
   <v name="RWIGS">     -1.00000000     -1.00000000</v>
   <i type="int" name="NEDOS">   301</i>
   <i name="EMIN">     10.00000000</i>
   <i name="EMAX">    -10.00000000</i>
   <i name="EFERMI">      0.00000000</i>
  </separator>
  <separator name="writing" >
   <i type="int" name="NWRITE">     2</i>
   <i type="logical" name="LWAVE"> F  </i>
   <i type="logical" name="LDOWNSAMPLE"> F  </i>
   <i type="logical" name="LCHARG"> F  </i>
   <i type="logical" name="LPARD"> F  </i>
   <i type="logical" name="LVTOT"> F  </i>
   <i type="logical" name="LVHAR"> F  </i>
   <i type="logical" name="LELF"> F  </i>
   <i type="logical" name="LOPTICS"> F  </i>
   <v name="STM">      0.00000000      0.00000000      0.00000000      0.00000000      0.00000000      0.00000000      0.00000000</v>
  </separator>
  <separator name="performance" >
   <i type="int" name="NPAR">     4</i>
   <i type="int" name="NSIM">     4</i>
   <i type="int" name="NBLK">    -1</i>
   <i type="logical" name="LPLANE"> T  </i>
   <i type="logical" name="LSCALAPACK"> T  </i>
   <i type="logical" name="LSCAAWARE"> F  </i>
   <i type="logical" name="LSCALU"> F  </i>
   <i type="logical" name="LASYNC"> F  </i>
   <i type="logical" name="LORBITALREAL"> F  </i>
  </separator>
  <separator name="miscellaneous" >
   <i type="int" name="IDIOT">     3</i>
   <i type="int" name="ISPECIAL">     0</i>
   <i type="logical" name="LMUSIC"> F  </i>
   <v name="POMASS">      1.00000000     12.01100000</v>
   <v name="DARWINR">      0.00000000      0.00000000</v>
   <v name="DARWINV">      1.00000000      1.00000000</v>
   <i type="logical" name="LCORR"> T  </i>
  </separator>
  <i type="logical" name="GGA_COMPAT"> T  </i>
  <i type="logical" name="LBERRY"> F  </i>
  <i type="int" name="ICORELEVEL">     0</i>
  <i type="logical" name="LDAU"> F  </i>
  <i type="int" name="I_CONSTRAINED_M">     0</i>
  <separator name="electronic exchange-correlation" >
   <i type="string" name="GGA">--</i>
   <i type="int" name="VOSKOWN">     0</i>
   <i type="logical" name="LHFCALC"> F  </i>
   <i type="string" name="PRECFOCK"></i>
   <i type="logical" name="LSYMGRAD"> F  </i>
   <i type="logical" name="LHFONE"> F  </i>
   <i type="logical" name="LRHFCALC"> F  </i>
   <i type="logical" name="LTHOMAS"> F  </i>
   <i type="logical" name="LMODELHF"> F  </i>
   <i name="ENCUT4O">     -1.00000000</i>
   <i type="int" name="EXXOEP">     0</i>
   <i type="int" name="FOURORBIT">     0</i>
   <i name="AEXX">      0.00000000</i>
   <i name="HFALPHA">      0.00000000</i>
   <i name="MCALPHA">      0.00000000</i>
   <i name="ALDAX">      1.00000000</i>
   <i name="AGGAX">      1.00000000</i>
   <i name="ALDAC">      1.00000000</i>
   <i name="AGGAC">      1.00000000</i>
   <i type="int" name="NKREDX">     1</i>
   <i type="int" name="NKREDY">     1</i>
   <i type="int" name="NKREDZ">     1</i>
   <i type="logical" name="SHIFTRED"> F  </i>
   <i type="logical" name="ODDONLY"> F  </i>
   <i type="logical" name="EVENONLY"> F  </i>
   <i type="int" name="LMAXFOCK">     0</i>
   <i type="int" name="NMAXFOCKAE">     0</i>
   <i type="logical" name="LFOCKAEDFT"> F  </i>
   <i name="HFSCREEN">      0.00000000</i>
   <i name="HFSCREENC">      0.00000000</i>
   <i type="int" name="NBANDSGWLOW">     0</i>
  </separator>
  <separator name="vdW DFT" >
   <i type="logical" name="LUSE_VDW"> F  </i>
   <i name="Zab_VDW">     -0.84910000</i>
   <i name="PARAM1">      0.12340000</i>
   <i name="PARAM2">      1.00000000</i>
   <i name="PARAM3">      0.00000000</i>
  </separator>
  <separator name="model GW" >
   <i type="int" name="MODEL_GW">     0</i>
   <i name="MODEL_EPS0">    124.06504590</i>
   <i name="MODEL_ALPHA">      1.00000000</i>
  </separator>
  <separator name="linear response parameters" >
   <i type="logical" name="LEPSILON"> F  </i>
   <i type="logical" name="LRPA"> F  </i>
   <i type="logical" name="LNABLA"> F  </i>
   <i type="logical" name="LVEL"> F  </i>
   <i type="int" name="KINTER">     0</i>
   <i name="CSHIFT">      0.10000000</i>
   <i name="OMEGAMAX">     -1.00000000</i>
   <i name="DEG_THRESHOLD">      0.00200000</i>
   <i name="RTIME">     -0.10000000</i>
   <i name="WPLASMAI">      0.00000000</i>
   <v name="DFIELD">      0.00000000      0.00000000      0.00000000</v>
   <v name="WPLASMA">      0.00000000      0.00000000      0.00000000      0.00000000      0.00000000      0.00000000      0.00000000      0.00000000      0.00000000</v>
  </separator>
  <separator name="orbital magnetization" >
   <i type="logical" name="NUCIND"> F  </i>
   <v name="MAGPOS">      0.00000000      0.00000000      0.00000000</v>
   <i type="logical" name="LNICSALL"> T  </i>
   <i type="logical" name="ORBITALMAG"> F  </i>
   <i type="logical" name="LMAGBLOCH"> F  </i>
   <i type="logical" name="LCHIMAG"> F  </i>
   <i type="logical" name="LGAUGE"> T  </i>
   <i type="int" name="MAGATOM">     0</i>
   <v name="MAGDIPOL">      0.00000000      0.00000000      0.00000000</v>
   <v name="AVECCONST">      0.00000000      0.00000000      0.00000000</v>
  </separator>
  <separator name="response functions" >
   <i type="logical" name="LADDER"> F  </i>
   <i type="logical" name="LRPAFORCE"> F  </i>
   <i type="logical" name="LFXC"> F  </i>
   <i type="logical" name="LHARTREE"> T  </i>
   <i type="int" name="IBSE">     0</i>
   <v type="int" name="KPOINT">    -1     0     0     0</v>
   <i type="logical" name="LTCTE"> F  </i>
   <i type="logical" name="LTETE"> F  </i>
   <i type="logical" name="LTRIPLET"> F  </i>
   <i type="logical" name="LFXCEPS"> F  </i>
   <i type="logical" name="LFXHEG"> F  </i>
   <i type="int" name="NATURALO">     2</i>
   <i type="logical" name="L2ORDER"> F  </i>
   <i type="logical" name="LMP2LT"> F  </i>
   <i type="logical" name="LUSEW"> F  </i>
   <i name="ENCUTGW">     -2.00000000</i>
   <i name="ENCUTGWSOFT">     -2.00000000</i>
   <i name="ENCUTLF">     -1.00000000</i>
   <i type="int" name="LMAXMP2">    -1</i>
   <i name="SCISSOR">      0.00000000</i>
   <i type="int" name="NOMEGA">     0</i>
   <i type="int" name="NOMEGAR">     0</i>
   <i type="int" name="NBANDSGW">    -1</i>
   <i type="int" name="NBANDSO">    -1</i>
   <i type="int" name="NBANDSV">    -1</i>
   <i type="int" name="NELM">   120</i>
   <i type="int" name="NELMHF">     1</i>
   <i type="int" name="DIM">     3</i>
   <i type="int" name="ANTIRES">     0</i>
   <i name="OMEGAMAX">    -30.00000000</i>
   <i name="OMEGAMIN">    -30.00000000</i>
   <i name="OMEGATL">   -200.00000000</i>
   <i type="int" name="OMEGAGRID">   140</i>
   <i name="CSHIFT">     -0.10000000</i>
   <i type="logical" name="SELFENERGY"> F  </i>
   <i type="logical" name="LSPECTRAL"> F  </i>
   <i type="logical" name="LSPECTRALGW"> F  </i>
   <i type="logical" name="LSINGLES"> F  </i>
   <i type="logical" name="LFERMIGW"> F  </i>
   <i type="logical" name="ODDONLYGW"> F  </i>
   <i type="logical" name="EVENONLYGW"> F  </i>
   <i type="int" name="NKREDLFX">     1</i>
   <i type="int" name="NKREDLFY">     1</i>
   <i type="int" name="NKREDLFZ">     1</i>
   <i type="int" name="MAXMEM">  2800</i>
   <i type="int" name="TELESCOPE">     0</i>
   <i type="int" name="TAUPAR">     1</i>
   <i type="int" name="OMEGAPAR">    -1</i>
   <i name="LAMBDA">      1.00000000</i>
  </separator>
  <separator name="External order field" >
   <i name="OFIELD_KAPPA">      0.00000000</i>
   <v name="OFIELD_K">      0.00000000      0.00000000      0.00000000</v>
   <i name="OFIELD_Q6_NEAR">      0.00000000</i>
   <i name="OFIELD_Q6_FAR">      0.00000000</i>
   <i name="OFIELD_A">      0.00000000</i>
  </separator>
 </parameters>
 <atominfo>
  <atoms>       5 </atoms>
  <types>       2 </types>
  <array name="atoms" >
   <dimension dim="1">ion</dimension>
   <field type="string">element</field>
   <field type="int">atomtype</field>
   <set>
    <rc><c>H </c><c>   1</c></rc>
    <rc><c>H </c><c>   1</c></rc>
    <rc><c>H </c><c>   1</c></rc>
    <rc><c>H </c><c>   1</c></rc>
    <rc><c>C </c><c>   2</c></rc>
   </set>
  </array>
  <array name="atomtypes" >
   <dimension dim="1">type</dimension>
   <field type="int">atomspertype</field>
   <field type="string">element</field>
   <field>mass</field>
   <field>valence</field>
   <field type="string">pseudopotential</field>
   <set>
    <rc><c>   4</c><c>H </c><c>      1.00000000</c><c>      1.00000000</c><c>  PAW_PBE H 15Jun2001                   </c></rc>
    <rc><c>   1</c><c>C </c><c>     12.01100000</c><c>      4.00000000</c><c>  PAW_PBE C 08Apr2002                   </c></rc>
   </set>
  </array>
 </atominfo>
 <structure name="initialpos" >
  <crystal>
   <varray name="basis" >
    <v>      10.24086655       0.00000000       0.00000000 </v>
    <v>       0.15682562      10.21061037       0.00000000 </v>
    <v>      -0.11663233       0.15410315       9.88734717 </v>
   </varray>
   <i name="volume">   1033.87538253 </i>
   <varray name="rec_basis" >
    <v>       0.09764799      -0.00149978       0.00117524 </v>
    <v>       0.00000000       0.09793734      -0.00152644 </v>
    <v>       0.00000000       0.00000000       0.10113936 </v>
   </varray>
  </crystal>
  <varray name="positions" >
   <v>       0.53795126       0.40681638       0.36036050 </v>
   <v>       0.39493457       0.47988990       0.43785684 </v>
   <v>       0.55241313       0.56589751       0.44218348 </v>
   <v>       0.52805342       0.41651182       0.53914442 </v>
   <v>       0.50349306       0.46727815       0.44491385 </v>
  </varray>
  <varray name="velocities" >
   <v>      -0.00000004      -0.00000030      -0.00000034 </v>
   <v>      -0.00000010       0.00000040       0.00000004 </v>
   <v>      -0.00000056      -0.00000044       0.00000056 </v>
   <v>      -0.00000073      -0.00000061       0.00000011 </v>
   <v>       0.00000012       0.00000008      -0.00000003 </v>
  </varray>
 </structure>
 <calculation>
  <scstep>
   <time name="dav">    0.23    0.26</time>
   <time name="total">    0.42    0.47</time>
   <energy>
    <i name="alphaZ">      0.23431334 </i>
    <i name="ewald">    127.20743752 </i>
    <i name="hartreedc">   -243.82027411 </i>
    <i name="XCdc">     21.93816633 </i>
    <i name="pawpsdc">    117.05815612 </i>
    <i name="pawaedc">   -117.66307307 </i>
    <i name="eentropy">     -0.00000000 </i>
    <i name="bandstr">    -88.32804135 </i>
    <i name="atom">    197.04175453 </i>
    <i name="e_fr_energy">     13.66843931 </i>
    <i name="e_wo_entrp">     13.66843931 </i>
    <i name="e_0_energy">     13.66843931 </i>
   </energy>
  </scstep>
  <scstep>
   <time name="dav">    0.19    0.19</time>
   <time name="total">    0.19    0.19</time>
   <energy>
    <i name="e_fr_energy">    -22.55187130 </i>
    <i name="e_wo_entrp">    -22.55187130 </i>
    <i name="e_0_energy">    -22.55187130 </i>
   </energy>
  </scstep>
  <scstep>
   <time name="dav">    0.17    0.18</time>
   <time name="total">    0.17    0.18</time>
   <energy>
    <i name="e_fr_energy">    -27.15168600 </i>
    <i name="e_wo_entrp">    -27.15168600 </i>
    <i name="e_0_energy">    -27.15168600 </i>
   </energy>
  </scstep>
  <scstep>
   <time name="dav">    0.29    0.30</time>
   <time name="total">    0.29    0.30</time>
   <energy>
    <i name="e_fr_energy">    -27.35412239 </i>
    <i name="e_wo_entrp">    -27.35412239 </i>
    <i name="e_0_energy">    -27.35412239 </i>
   </energy>
  </scstep>
  <scstep>
   <time name="dav">    0.24    0.26</time>
   <time name="total">    0.27    0.29</time>
   <energy>
    <i name="e_fr_energy">    -27.35419661 </i>
    <i name="e_wo_entrp">    -27.35419661 </i>
    <i name="e_0_energy">    -27.35419661 </i>
   </energy>
  </scstep>
  <scstep>
   <time name="diag">    0.05    0.06</time>
   <time name="diis">    0.18    0.19</time>
   <time name="orth">    0.00    0.00</time>
   <time name="total">    0.44    0.46</time>
   <energy>
    <i name="e_fr_energy">    -24.60494923 </i>
    <i name="e_wo_entrp">    -24.60494923 </i>
    <i name="e_0_energy">    -24.60494923 </i>
   </energy>
  </scstep>
  <scstep>
   <time name="diag">    0.05    0.05</time>
   <time name="diis">    0.18    0.18</time>
   <time name="orth">    0.00    0.00</time>
   <time name="total">    0.42    0.43</time>
   <energy>
    <i name="e_fr_energy">    -24.13968328 </i>
    <i name="e_wo_entrp">    -24.13968328 </i>
    <i name="e_0_energy">    -24.13968328 </i>
   </energy>
  </scstep>
  <scstep>
   <time name="diag">    0.05    0.05</time>
   <time name="diis">    0.18    0.18</time>
   <time name="orth">    0.00    0.00</time>
   <time name="total">    0.41    0.42</time>
   <energy>
    <i name="e_fr_energy">    -23.99552662 </i>
    <i name="e_wo_entrp">    -23.99552662 </i>
    <i name="e_0_energy">    -23.99552662 </i>
   </energy>
  </scstep>
  <scstep>
   <time name="diag">    0.04    0.05</time>
   <time name="diis">    0.19    0.19</time>
   <time name="orth">    0.00    0.00</time>
   <time name="total">    0.42    0.44</time>
   <energy>
    <i name="e_fr_energy">    -23.98999271 </i>
    <i name="e_wo_entrp">    -23.98999271 </i>
    <i name="e_0_energy">    -23.98999271 </i>
   </energy>
  </scstep>
  <scstep>
   <time name="diag">    0.05    0.05</time>
   <time name="diis">    0.18    0.19</time>
   <time name="orth">    0.00    0.00</time>
   <time name="total">    0.41    0.42</time>
   <energy>
    <i name="e_fr_energy">    -23.98361264 </i>
    <i name="e_wo_entrp">    -23.98361264 </i>
    <i name="e_0_energy">    -23.98361264 </i>
   </energy>
  </scstep>
  <scstep>
   <time name="diag">    0.04    0.05</time>
   <time name="diis">    0.17    0.18</time>
   <time name="orth">    0.00    0.00</time>
   <time name="total">    0.40    0.41</time>
   <energy>
    <i name="e_fr_energy">    -23.98448611 </i>
    <i name="e_wo_entrp">    -23.98448611 </i>
    <i name="e_0_energy">    -23.98448611 </i>
   </energy>
  </scstep>
  <scstep>
   <time name="diag">    0.04    0.05</time>
   <time name="diis">    0.18    0.18</time>
   <time name="orth">    0.00    0.00</time>
   <time name="total">    0.45    0.47</time>
   <energy>
    <i name="e_fr_energy">    -23.99359764 </i>
    <i name="e_wo_entrp">    -23.99359764 </i>
    <i name="e_0_energy">    -23.99359764 </i>
   </energy>
  </scstep>
  <scstep>
   <time name="diag">    0.05    0.05</time>
   <time name="diis">    0.18    0.19</time>
   <time name="orth">    0.00    0.00</time>
   <time name="total">    0.40    0.42</time>
   <energy>
    <i name="e_fr_energy">    -23.99428674 </i>
    <i name="e_wo_entrp">    -23.99428674 </i>
    <i name="e_0_energy">    -23.99428674 </i>
   </energy>
  </scstep>
  <scstep>
   <time name="diag">    0.05    0.05</time>
   <time name="diis">    0.18    0.19</time>
   <time name="orth">    0.00    0.00</time>
   <time name="total">    0.40    0.42</time>
   <energy>
    <i name="e_fr_energy">    -23.99708224 </i>
    <i name="e_wo_entrp">    -23.99708224 </i>
    <i name="e_0_energy">    -23.99708224 </i>
   </energy>
  </scstep>
  <scstep>
   <time name="diag">    0.04    0.05</time>
   <time name="diis">    0.17    0.18</time>
   <time name="orth">    0.00    0.00</time>
   <time name="total">    0.39    0.41</time>
   <energy>
    <i name="e_fr_energy">    -23.99739240 </i>
    <i name="e_wo_entrp">    -23.99739240 </i>
    <i name="e_0_energy">    -23.99739240 </i>
   </energy>
  </scstep>
  <scstep>
   <time name="diag">    0.04    0.05</time>
   <time name="diis">    0.17    0.18</time>
   <time name="orth">    0.00    0.00</time>
   <time name="total">    0.39    0.41</time>
   <energy>
    <i name="e_fr_energy">    -23.99759643 </i>
    <i name="e_wo_entrp">    -23.99759643 </i>
    <i name="e_0_energy">    -23.99759643 </i>
   </energy>
  </scstep>
  <scstep>
   <time name="diag">    0.04    0.05</time>
   <time name="diis">    0.18    0.18</time>
   <time name="orth">    0.00    0.00</time>
   <time name="total">    0.40    0.41</time>
   <energy>
    <i name="e_fr_energy">    -23.99764557 </i>
    <i name="e_wo_entrp">    -23.99764557 </i>
    <i name="e_0_energy">    -23.99764557 </i>
   </energy>
  </scstep>
  <scstep>
   <time name="diag">    0.05    0.05</time>
   <time name="diis">    0.17    0.17</time>
   <time name="orth">    0.00    0.00</time>
   <time name="total">    0.39    0.40</time>
   <energy>
    <i name="e_fr_energy">    -23.99765528 </i>
    <i name="e_wo_entrp">    -23.99765528 </i>
    <i name="e_0_energy">    -23.99765528 </i>
   </energy>
  </scstep>
  <scstep>
   <time name="diag">    0.05    0.05</time>
   <time name="diis">    0.14    0.14</time>
   <time name="orth">    0.00    0.00</time>
   <time name="total">    0.37    0.37</time>
   <energy>
    <i name="e_fr_energy">    -23.99765958 </i>
    <i name="e_wo_entrp">    -23.99765958 </i>
    <i name="e_0_energy">    -23.99765958 </i>
   </energy>
  </scstep>
  <scstep>
   <time name="diag">    0.05    0.05</time>
   <time name="diis">    0.14    0.15</time>
   <time name="orth">    0.00    0.00</time>
   <time name="total">    0.34    0.35</time>
   <energy>
    <i name="alphaZ">      0.23431334 </i>
    <i name="ewald">    127.20743752 </i>
    <i name="hartreedc">   -283.28399554 </i>
    <i name="XCdc">     24.60407333 </i>
    <i name="pawpsdc">    449.82085523 </i>
    <i name="pawaedc">   -450.59826509 </i>
    <i name="eentropy">     -0.00000000 </i>
    <i name="bandstr">    -89.02383325 </i>
    <i name="atom">    197.04175453 </i>
    <i name="e_fr_energy">    -23.99765993 </i>
    <i name="e_wo_entrp">    -23.99765993 </i>
    <i name="e_0_energy">    -23.99765993 </i>
   </energy>
  </scstep>
  <structure>
   <crystal>
    <varray name="basis" >
     <v>      10.24086655       0.00000000       0.00000000 </v>
     <v>       0.15682562      10.21061037       0.00000000 </v>
     <v>      -0.11663233       0.15410315       9.88734717 </v>
    </varray>
    <i name="volume">   1033.87538253 </i>
    <varray name="rec_basis" >
     <v>       0.09764799      -0.00149978       0.00117524 </v>
     <v>       0.00000000       0.09793734      -0.00152644 </v>
     <v>       0.00000000       0.00000000       0.10113936 </v>
    </varray>
   </crystal>
   <varray name="positions" >
    <v>       0.53795126       0.40681638       0.36036050 </v>
    <v>       0.39493457       0.47988990       0.43785684 </v>
    <v>       0.55241313       0.56589751       0.44218348 </v>
    <v>       0.52805342       0.41651182       0.53914442 </v>
    <v>       0.50349306       0.46727815       0.44491385 </v>
   </varray>
  </structure>
  <varray name="forces" >
   <v>      -0.08949512       0.22709432       0.12753860 </v>
   <v>       0.66645813       0.01415429      -0.01829301 </v>
   <v>      -0.51687494      -0.91174703      -0.00945243 </v>
   <v>       0.11974401      -0.13824673       0.40153255 </v>
   <v>      -0.18009343       0.80860720      -0.50144160 </v>
  </varray>
  <varray name="stress" >
   <v>      -2.13206077      -0.67236371       0.23516808 </v>
   <v>      -0.67236371      -2.10104271      -0.45056012 </v>
   <v>       0.23516808      -0.45056012      -0.17163499 </v>
  </varray>
  <energy>
   <i name="e_fr_energy">    -23.99765993 </i>
   <i name="e_wo_entrp">    -23.99765993 </i>
   <i name="e_0_energy">     -0.00000000 </i>
   <i name="kinetic">      0.00057360 </i>
   <i name="lattice kinetic">      0.00000000 </i>
   <i name="nosepot">      0.00000000 </i>
   <i name="nosekinetic">      0.00000000 </i>
   <i name="total">    -23.99708632 </i>
  </energy>
  <time name="totalsc">    8.03    8.35</time>
 </calculation>
 <calculation>
  <scstep>
   <time name="dav">    0.22    0.23</time>
   <time name="total">    0.41    0.41</time>
   <energy>
    <i name="alphaZ">      0.23431334 </i>
    <i name="ewald">    127.40816348 </i>
    <i name="hartreedc">   -283.40814752 </i>
    <i name="XCdc">     24.61027987 </i>
    <i name="pawpsdc">    449.81267878 </i>
    <i name="pawaedc">   -450.59009694 </i>
    <i name="eentropy">     -0.00000000 </i>
    <i name="bandstr">    -89.11102957 </i>
    <i name="atom">    197.04175453 </i>
    <i name="e_fr_energy">    -24.00208402 </i>
    <i name="e_wo_entrp">    -24.00208402 </i>
    <i name="e_0_energy">    -24.00208402 </i>
   </energy>
  </scstep>
  <scstep>
   <time name="diag">    0.04    0.04</time>
   <time name="diis">    0.18    0.18</time>
   <time name="orth">    0.00    0.00</time>
   <time name="total">    0.41    0.41</time>
   <energy>
    <i name="e_fr_energy">    -24.00206653 </i>
    <i name="e_wo_entrp">    -24.00206653 </i>
    <i name="e_0_energy">    -24.00206653 </i>
   </energy>
  </scstep>
  <scstep>
   <time name="diag">    0.05    0.05</time>
   <time name="diis">    0.18    0.18</time>
   <time name="orth">    0.00    0.00</time>
   <time name="total">    0.41    0.41</time>
   <energy>
    <i name="e_fr_energy">    -24.00206557 </i>
    <i name="e_wo_entrp">    -24.00206557 </i>
    <i name="e_0_energy">    -24.00206557 </i>
   </energy>
  </scstep>
  <scstep>
   <time name="diag">    0.05    0.05</time>
   <time name="diis">    0.14    0.14</time>
   <time name="orth">    0.00    0.00</time>
   <time name="total">    0.35    0.35</time>
   <energy>
    <i name="alphaZ">      0.23431334 </i>
    <i name="ewald">    127.40816348 </i>
    <i name="hartreedc">   -283.46404110 </i>
    <i name="XCdc">     24.61345184 </i>
    <i name="pawpsdc">    450.81338692 </i>
    <i name="pawaedc">   -451.59143242 </i>
    <i name="eentropy">     -0.00000000 </i>
    <i name="bandstr">    -89.05766215 </i>
    <i name="atom">    197.04175453 </i>
    <i name="e_fr_energy">    -24.00206556 </i>
    <i name="e_wo_entrp">    -24.00206556 </i>
    <i name="e_0_energy">    -24.00206556 </i>
   </energy>
  </scstep>
  <structure>
   <crystal>
    <varray name="basis" >
     <v>      10.24086655       0.00000000       0.00000000 </v>
     <v>       0.15682562      10.21061037       0.00000000 </v>
     <v>      -0.11663233       0.15410315       9.88734717 </v>
    </varray>
    <i name="volume">   1033.87538253 </i>
    <varray name="rec_basis" >
     <v>       0.09764799      -0.00149978       0.00117524 </v>
     <v>       0.00000000       0.09793734      -0.00152644 </v>
     <v>       0.00000000       0.00000000       0.10113936 </v>
    </varray>
   </crystal>
   <varray name="positions" >
    <v>       0.53792968       0.40686925       0.36039128 </v>
    <v>       0.39509135       0.47989371       0.43785243 </v>
    <v>       0.55229410       0.56568172       0.44218173 </v>
    <v>       0.52808253       0.41647707       0.53924249 </v>
    <v>       0.50348929       0.46729429       0.44490364 </v>
   </varray>
  </structure>
  <varray name="forces" >
   <v>      -0.08292798       0.21360621       0.11500791 </v>
   <v>       0.61848132       0.01723108      -0.01965877 </v>
   <v>      -0.48304349      -0.84853803      -0.01013911 </v>
   <v>       0.11070906      -0.12168142       0.36634277 </v>
   <v>      -0.16338723       0.73865443      -0.45146142 </v>
  </varray>
  <varray name="stress" >
   <v>      -2.02589373      -0.62765632       0.21784417 </v>
   <v>      -0.62765632      -2.00436420      -0.41298704 </v>
   <v>       0.21784417      -0.41298704      -0.20946835 </v>
  </varray>
  <energy>
   <i name="e_fr_energy">    -24.00206556 </i>
   <i name="e_wo_entrp">    -24.00206556 </i>
   <i name="e_0_energy">     -0.00000000 </i>
   <i name="kinetic">      0.00489851 </i>
   <i name="lattice kinetic">      0.00000000 </i>
   <i name="nosepot">      0.00000000 </i>
   <i name="nosekinetic">      0.00000000 </i>
   <i name="total">    -23.99716705 </i>
  </energy>
  <time name="totalsc">    2.23    2.25</time>
 </calculation>
 <calculation>
  <scstep>
   <time name="dav">    0.17    0.17</time>
   <time name="total">    0.36    0.36</time>
   <energy>
    <i name="alphaZ">      0.23431334 </i>
    <i name="ewald">    127.79970943 </i>
    <i name="hartreedc">   -283.80432029 </i>
    <i name="XCdc">     24.63137093 </i>
    <i name="pawpsdc">    453.02275613 </i>
    <i name="pawaedc">   -453.80194030 </i>
    <i name="eentropy">     -0.00000000 </i>
    <i name="bandstr">    -89.13324180 </i>
    <i name="atom">    197.04175453 </i>
    <i name="e_fr_energy">    -24.00959804 </i>
    <i name="e_wo_entrp">    -24.00959804 </i>
    <i name="e_0_energy">    -24.00959804 </i>
   </energy>
  </scstep>
  <scstep>
   <time name="diag">    0.05    0.05</time>
   <time name="diis">    0.18    0.19</time>
   <time name="orth">    0.00    0.00</time>
   <time name="total">    0.42    0.42</time>
   <energy>
    <i name="e_fr_energy">    -24.00961396 </i>
    <i name="e_wo_entrp">    -24.00961396 </i>
    <i name="e_0_energy">    -24.00961396 </i>
   </energy>
  </scstep>
  <scstep>
   <time name="diag">    0.05    0.05</time>
   <time name="diis">    0.17    0.17</time>
   <time name="orth">    0.00    0.00</time>
   <time name="total">    0.40    0.41</time>
   <energy>
    <i name="e_fr_energy">    -24.00961494 </i>
    <i name="e_wo_entrp">    -24.00961494 </i>
    <i name="e_0_energy">    -24.00961494 </i>
   </energy>
  </scstep>
  <scstep>
   <time name="diag">    0.04    0.05</time>
   <time name="diis">    0.14    0.14</time>
   <time name="orth">    0.00    0.00</time>
   <time name="total">    0.34    0.35</time>
   <energy>
    <i name="alphaZ">      0.23431334 </i>
    <i name="ewald">    127.79970943 </i>
    <i name="hartreedc">   -283.81805649 </i>
    <i name="XCdc">     24.63200268 </i>
    <i name="pawpsdc">    453.09094749 </i>
    <i name="pawaedc">   -453.87029011 </i>
    <i name="eentropy">     -0.00000000 </i>
    <i name="bandstr">    -89.11999626 </i>
    <i name="atom">    197.04175453 </i>
    <i name="e_fr_energy">    -24.00961540 </i>
    <i name="e_wo_entrp">    -24.00961540 </i>
    <i name="e_0_energy">    -24.00961540 </i>
   </energy>
  </scstep>
  <structure>
   <crystal>
    <varray name="basis" >
     <v>      10.24086655       0.00000000       0.00000000 </v>
     <v>       0.15682562      10.21061037       0.00000000 </v>
     <v>      -0.11663233       0.15410315       9.88734717 </v>
    </varray>
    <i name="volume">   1033.87538253 </i>
    <varray name="rec_basis" >
     <v>       0.09764799      -0.00149978       0.00117524 </v>
     <v>       0.00000000       0.09793734      -0.00152644 </v>
     <v>       0.00000000       0.00000000       0.10113936 </v>
    </varray>
   </crystal>
   <varray name="positions" >
    <v>       0.53788813       0.40697218       0.36045011 </v>
    <v>       0.39539369       0.47990167       0.43784321 </v>
    <v>       0.55206434       0.56526552       0.44217751 </v>
    <v>       0.52813920       0.41641223       0.53942994 </v>
    <v>       0.50348199       0.46732510       0.44488425 </v>
   </varray>
  </structure>
  <varray name="forces" >
   <v>      -0.07110258       0.18925054       0.09252546 </v>
   <v>       0.52670011       0.02332981      -0.02235503 </v>
   <v>      -0.41714661      -0.72493318      -0.01164315 </v>
   <v>       0.09272097      -0.08841334       0.29637243 </v>
   <v>      -0.13151647       0.60090371      -0.35525496 </v>
  </varray>
  <varray name="stress" >
   <v>      -1.81108990      -0.53895698       0.18432442 </v>
   <v>      -0.53895697      -1.80696011      -0.34030894 </v>
   <v>       0.18432442      -0.34030894      -0.27663812 </v>
  </varray>
  <energy>
   <i name="e_fr_energy">    -24.00961540 </i>
   <i name="e_wo_entrp">    -24.00961540 </i>
   <i name="e_0_energy">     -0.00000000 </i>
   <i name="kinetic">      0.01231012 </i>
   <i name="lattice kinetic">      0.00000000 </i>
   <i name="nosepot">      0.00000000 </i>
   <i name="nosekinetic">      0.00000000 </i>
   <i name="total">    -23.99730528 </i>
  </energy>
  <time name="totalsc">    2.17    2.20</time>
 </calculation>
 <calculation>
  <scstep>
   <time name="dav">    0.19    0.20</time>
   <time name="total">    0.38    0.38</time>
   <energy>
    <i name="alphaZ">      0.23431334 </i>
    <i name="ewald">    128.36256878 </i>
    <i name="hartreedc">   -284.35401401 </i>
    <i name="XCdc">     24.65985114 </i>
    <i name="pawpsdc">    456.32484068 </i>
    <i name="pawaedc">   -457.10641042 </i>
    <i name="eentropy">     -0.00000000 </i>
    <i name="bandstr">    -89.18103693 </i>
    <i name="atom">    197.04175453 </i>
    <i name="e_fr_energy">    -24.01813290 </i>
    <i name="e_wo_entrp">    -24.01813290 </i>
    <i name="e_0_energy">    -24.01813290 </i>
   </energy>
  </scstep>
  <scstep>
   <time name="diag">    0.05    0.05</time>
   <time name="diis">    0.18    0.18</time>
   <time name="orth">    0.00    0.00</time>
   <time name="total">    0.40    0.41</time>
   <energy>
    <i name="e_fr_energy">    -24.01813134 </i>
    <i name="e_wo_entrp">    -24.01813134 </i>
    <i name="e_0_energy">    -24.01813134 </i>
   </energy>
  </scstep>
  <scstep>
   <time name="diag">    0.05    0.05</time>
   <time name="diis">    0.18    0.18</time>
   <time name="orth">    0.00    0.00</time>
   <time name="total">    0.40    0.41</time>
   <energy>
    <i name="e_fr_energy">    -24.01813215 </i>
    <i name="e_wo_entrp">    -24.01813215 </i>
    <i name="e_0_energy">    -24.01813215 </i>
   </energy>
  </scstep>
  <scstep>
   <time name="diag">    0.05    0.05</time>
   <time name="diis">    0.15    0.15</time>
   <time name="orth">    0.00    0.00</time>
   <time name="total">    0.35    0.36</time>
   <energy>
    <i name="alphaZ">      0.23431334 </i>
    <i name="ewald">    128.36256878 </i>
    <i name="hartreedc">   -284.32246276 </i>
    <i name="XCdc">     24.65838447 </i>
    <i name="pawpsdc">    456.21448524 </i>
    <i name="pawaedc">   -456.99567420 </i>
    <i name="eentropy">     -0.00000000 </i>
    <i name="bandstr">    -89.21150198 </i>
    <i name="atom">    197.04175453 </i>
    <i name="e_fr_energy">    -24.01813258 </i>
    <i name="e_wo_entrp">    -24.01813258 </i>
    <i name="e_0_energy">    -24.01813258 </i>
   </energy>
  </scstep>
  <structure>
   <crystal>
    <varray name="basis" >
     <v>      10.24086655       0.00000000       0.00000000 </v>
     <v>       0.15682562      10.21061037       0.00000000 </v>
     <v>      -0.11663233       0.15410315       9.88734717 </v>
    </varray>
    <i name="volume">   1033.87538253 </i>
    <varray name="rec_basis" >
     <v>       0.09764799      -0.00149978       0.00117524 </v>
     <v>       0.00000000       0.09793734      -0.00152644 </v>
     <v>       0.00000000       0.00000000       0.10113936 </v>
    </varray>
   </crystal>
   <varray name="positions" >
    <v>       0.53782941       0.40711947       0.36053151 </v>
    <v>       0.39581994       0.47991523       0.43782855 </v>
    <v>       0.55173891       0.56467811       0.44217045 </v>
    <v>       0.52821888       0.41632542       0.53968969 </v>
    <v>       0.50347185       0.46736785       0.44485766 </v>
   </varray>
  </structure>
  <varray name="forces" >
   <v>      -0.05397366       0.15398021       0.05979197 </v>
   <v>       0.39393999       0.03202793      -0.02616156 </v>
   <v>      -0.32058169      -0.54412315      -0.01370353 </v>
   <v>       0.06864380      -0.04456272       0.20330408 </v>
   <v>      -0.08829708       0.40268226      -0.22302618 </v>
  </varray>
  <varray name="stress" >
   <v>      -1.50714419      -0.41190440       0.13808524 </v>
   <v>      -0.41190440      -1.52425432      -0.24060694 </v>
   <v>       0.13808524      -0.24060693      -0.36919950 </v>
  </varray>
  <energy>
   <i name="e_fr_energy">    -24.01813258 </i>
   <i name="e_wo_entrp">    -24.01813258 </i>
   <i name="e_0_energy">     -0.00000000 </i>
   <i name="kinetic">      0.02066355 </i>
   <i name="lattice kinetic">      0.00000000 </i>
   <i name="nosepot">      0.00000000 </i>
   <i name="nosekinetic">      0.00000000 </i>
   <i name="total">    -23.99746903 </i>
  </energy>
  <time name="totalsc">    2.19    2.22</time>
 </calculation>
 <calculation>
  <scstep>
   <time name="dav">    0.18    0.19</time>
   <time name="total">    0.35    0.36</time>
   <energy>
    <i name="alphaZ">      0.23431334 </i>
    <i name="ewald">    129.06479833 </i>
    <i name="hartreedc">   -284.95566874 </i>
    <i name="XCdc">     24.69161770 </i>
    <i name="pawpsdc">    460.33586003 </i>
    <i name="pawaedc">   -461.11949051 </i>
    <i name="eentropy">     -0.00000000 </i>
    <i name="bandstr">    -89.31823871 </i>
    <i name="atom">    197.04175453 </i>
    <i name="e_fr_energy">    -24.02505404 </i>
    <i name="e_wo_entrp">    -24.02505404 </i>
    <i name="e_0_energy">    -24.02505404 </i>
   </energy>
  </scstep>
  <scstep>
   <time name="diag">    0.04    0.05</time>
   <time name="diis">    0.18    0.18</time>
   <time name="orth">    0.00    0.00</time>
   <time name="total">    0.40    0.41</time>
   <energy>
    <i name="e_fr_energy">    -24.02505770 </i>
    <i name="e_wo_entrp">    -24.02505770 </i>
    <i name="e_0_energy">    -24.02505770 </i>
   </energy>
  </scstep>
  <scstep>
   <time name="diag">    0.04    0.05</time>
   <time name="diis">    0.14    0.14</time>
   <time name="orth">    0.00    0.00</time>
   <time name="total">    0.36    0.37</time>
   <energy>
    <i name="e_fr_energy">    -24.02506046 </i>
    <i name="e_wo_entrp">    -24.02506046 </i>
    <i name="e_0_energy">    -24.02506046 </i>
   </energy>
  </scstep>
  <scstep>
   <time name="diag">    0.04    0.05</time>
   <time name="diis">    0.14    0.15</time>
   <time name="orth">    0.00    0.00</time>
   <time name="total">    0.36    0.37</time>
   <energy>
    <i name="e_fr_energy">    -24.02506335 </i>
    <i name="e_wo_entrp">    -24.02506335 </i>
    <i name="e_0_energy">    -24.02506335 </i>
   </energy>
  </scstep>
  <scstep>
   <time name="diag">    0.04    0.05</time>
   <time name="diis">    0.14    0.15</time>
   <time name="orth">    0.00    0.00</time>
   <time name="total">    0.36    0.37</time>
   <energy>
    <i name="e_fr_energy">    -24.02506649 </i>
    <i name="e_wo_entrp">    -24.02506649 </i>
    <i name="e_0_energy">    -24.02506649 </i>
   </energy>
  </scstep>
  <scstep>
   <time name="diag">    0.05    0.05</time>
   <time name="diis">    0.13    0.14</time>
   <time name="orth">    0.00    0.00</time>
   <time name="total">    0.36    0.37</time>
   <energy>
    <i name="e_fr_energy">    -24.02506942 </i>
    <i name="e_wo_entrp">    -24.02506942 </i>
    <i name="e_0_energy">    -24.02506942 </i>
   </energy>
  </scstep>
  <scstep>
   <time name="diag">    0.04    0.05</time>
   <time name="diis">    0.13    0.13</time>
   <time name="orth">    0.00    0.00</time>
   <time name="total">    0.33    0.34</time>
   <energy>
    <i name="alphaZ">      0.23431334 </i>
    <i name="ewald">    129.06479833 </i>
    <i name="hartreedc">   -284.94503911 </i>
    <i name="XCdc">     24.69113532 </i>
    <i name="pawpsdc">    460.33608484 </i>
    <i name="pawaedc">   -461.11965471 </i>
    <i name="eentropy">     -0.00000000 </i>
    <i name="bandstr">    -89.32846271 </i>
    <i name="atom">    197.04175453 </i>
    <i name="e_fr_energy">    -24.02507018 </i>
    <i name="e_wo_entrp">    -24.02507018 </i>
    <i name="e_0_energy">    -24.02507018 </i>
   </energy>
  </scstep>
  <structure>
   <crystal>
    <varray name="basis" >
     <v>      10.24086655       0.00000000       0.00000000 </v>
     <v>       0.15682562      10.21061037       0.00000000 </v>
     <v>      -0.11663233       0.15410315       9.88734717 </v>
    </varray>
    <i name="volume">   1033.87538253 </i>
    <varray name="rec_basis" >
     <v>       0.09764799      -0.00149978       0.00117524 </v>
     <v>       0.00000000       0.09793734      -0.00152644 </v>
     <v>       0.00000000       0.00000000       0.10113936 </v>
    </varray>
   </crystal>
   <varray name="positions" >
    <v>       0.53775760       0.40730292       0.36062751 </v>
    <v>       0.39633880       0.47993645       0.43780750 </v>
    <v>       0.55133991       0.56396220       0.44216005 </v>
    <v>       0.52831546       0.41622733       0.53999903 </v>
    <v>       0.50345981       0.46741858       0.44482653 </v>
   </varray>
  </structure>
  <varray name="forces" >
   <v>      -0.03290144       0.11029902       0.01971691 </v>
   <v>       0.22773442       0.04263264      -0.03086723 </v>
   <v>      -0.19695402      -0.31281664      -0.01631016 </v>
   <v>       0.04036498       0.00592829       0.09477754 </v>
   <v>      -0.03855227       0.15423924      -0.06726069 </v>
  </varray>
  <varray name="stress" >
   <v>      -1.12814159      -0.25220310       0.08340258 </v>
   <v>      -0.25220310      -1.16570877      -0.12265354 </v>
   <v>       0.08340258      -0.12265354      -0.47451893 </v>
  </varray>
  <energy>
   <i name="e_fr_energy">    -24.02507018 </i>
   <i name="e_wo_entrp">    -24.02507018 </i>
   <i name="e_0_energy">     -0.00000000 </i>
   <i name="kinetic">      0.02745881 </i>
   <i name="lattice kinetic">      0.00000000 </i>
   <i name="nosepot">      0.00000000 </i>
   <i name="nosekinetic">      0.00000000 </i>
   <i name="total">    -23.99761137 </i>
  </energy>
  <time name="totalsc">    3.16    3.23</time>
 </calculation>
 <calculation>
  <scstep>
   <time name="dav">    0.20    0.20</time>
   <time name="total">    0.37    0.38</time>
   <energy>
    <i name="alphaZ">      0.23431334 </i>
    <i name="ewald">    129.86118884 </i>
    <i name="hartreedc">   -285.63090892 </i>
    <i name="XCdc">     24.72744524 </i>
    <i name="pawpsdc">    465.07147615 </i>
    <i name="pawaedc">   -465.85766586 </i>
    <i name="eentropy">     -0.00000000 </i>
    <i name="bandstr">    -89.47584226 </i>
    <i name="atom">    197.04175453 </i>
    <i name="e_fr_energy">    -24.02823894 </i>
    <i name="e_wo_entrp">    -24.02823894 </i>
    <i name="e_0_energy">    -24.02823894 </i>
   </energy>
  </scstep>
  <scstep>
   <time name="diag">    0.04    0.04</time>
   <time name="diis">    0.17    0.18</time>
   <time name="orth">    0.00    0.00</time>
   <time name="total">    0.40    0.41</time>
   <energy>
    <i name="e_fr_energy">    -24.02824068 </i>
    <i name="e_wo_entrp">    -24.02824068 </i>
    <i name="e_0_energy">    -24.02824068 </i>
   </energy>
  </scstep>
  <scstep>
   <time name="diag">    0.04    0.05</time>
   <time name="diis">    0.17    0.17</time>
   <time name="orth">    0.00    0.00</time>
   <time name="total">    0.45    0.46</time>
   <energy>
    <i name="e_fr_energy">    -24.02824349 </i>
    <i name="e_wo_entrp">    -24.02824349 </i>
    <i name="e_0_energy">    -24.02824349 </i>
   </energy>
  </scstep>
  <scstep>
   <time name="diag">    0.04    0.05</time>
   <time name="diis">    0.14    0.14</time>
   <time name="orth">    0.00    0.00</time>
   <time name="total">    0.37    0.37</time>
   <energy>
    <i name="e_fr_energy">    -24.02824457 </i>
    <i name="e_wo_entrp">    -24.02824457 </i>
    <i name="e_0_energy">    -24.02824457 </i>
   </energy>
  </scstep>
  <scstep>
   <time name="diag">    0.05    0.05</time>
   <time name="diis">    0.14    0.14</time>
   <time name="orth">    0.00    0.00</time>
   <time name="total">    0.38    0.38</time>
   <energy>
    <i name="e_fr_energy">    -24.02824738 </i>
    <i name="e_wo_entrp">    -24.02824738 </i>
    <i name="e_0_energy">    -24.02824738 </i>
   </energy>
  </scstep>
  <scstep>
   <time name="diag">    0.05    0.05</time>
   <time name="diis">    0.14    0.14</time>
   <time name="orth">    0.00    0.00</time>
   <time name="total">    0.35    0.35</time>
   <energy>
    <i name="alphaZ">      0.23431334 </i>
    <i name="ewald">    129.86118884 </i>
    <i name="hartreedc">   -285.64755513 </i>
    <i name="XCdc">     24.72823570 </i>
    <i name="pawpsdc">    465.03866407 </i>
    <i name="pawaedc">   -465.82499594 </i>
    <i name="eentropy">     -0.00000000 </i>
    <i name="bandstr">    -89.45985308 </i>
    <i name="atom">    197.04175453 </i>
    <i name="e_fr_energy">    -24.02824767 </i>
    <i name="e_wo_entrp">    -24.02824767 </i>
    <i name="e_0_energy">    -24.02824767 </i>
   </energy>
  </scstep>
  <structure>
   <crystal>
    <varray name="basis" >
     <v>      10.24086655       0.00000000       0.00000000 </v>
     <v>       0.15682562      10.21061037       0.00000000 </v>
     <v>      -0.11663233       0.15410315       9.88734717 </v>
    </varray>
    <i name="volume">   1033.87538253 </i>
    <varray name="rec_basis" >
     <v>       0.09764799      -0.00149978       0.00117524 </v>
     <v>       0.00000000       0.09793734      -0.00152644 </v>
     <v>       0.00000000       0.00000000       0.10113936 </v>
    </varray>
   </crystal>
   <varray name="positions" >
    <v>       0.53767769       0.40751235       0.36072831 </v>
    <v>       0.39691106       0.47996785       0.43777892 </v>
    <v>       0.55089561       0.56317245       0.44214567 </v>
    <v>       0.52842181       0.41613029       0.54033150 </v>
    <v>       0.50344696       0.46747236       0.44479403 </v>
   </varray>
  </structure>
  <varray name="forces" >
   <v>      -0.00937871       0.06127594      -0.02480640 </v>
   <v>       0.03932377       0.05428665      -0.03602130 </v>
   <v>      -0.05325958      -0.04437737      -0.01923915 </v>
   <v>       0.01057242       0.05787129      -0.01843363 </v>
   <v>       0.01255505      -0.12897827       0.09873461 </v>
  </varray>
  <varray name="stress" >
   <v>      -0.70008500      -0.07054592       0.02475901 </v>
   <v>      -0.07054592      -0.75295118       0.00302968 </v>
   <v>       0.02475902       0.00302968      -0.58229801 </v>
  </varray>
  <energy>
   <i name="e_fr_energy">    -24.02824767 </i>
   <i name="e_wo_entrp">    -24.02824767 </i>
   <i name="e_0_energy">     -0.00000000 </i>
   <i name="kinetic">      0.03055983 </i>
   <i name="lattice kinetic">      0.00000000 </i>
   <i name="nosepot">      0.00000000 </i>
   <i name="nosekinetic">      0.00000000 </i>
   <i name="total">    -23.99768784 </i>
  </energy>
  <time name="totalsc">    2.96    3.01</time>
 </calculation>
 <calculation>
  <scstep>
   <time name="dav">    0.17    0.17</time>
   <time name="total">    0.35    0.36</time>
   <energy>
    <i name="alphaZ">      0.23431334 </i>
    <i name="ewald">    130.69374179 </i>
    <i name="hartreedc">   -286.38176914 </i>
    <i name="XCdc">     24.76715516 </i>
    <i name="pawpsdc">    470.14353051 </i>
    <i name="pawaedc">   -470.93288792 </i>
    <i name="eentropy">     -0.00000000 </i>
    <i name="bandstr">    -89.59238417 </i>
    <i name="atom">    197.04175453 </i>
    <i name="e_fr_energy">    -24.02654590 </i>
    <i name="e_wo_entrp">    -24.02654590 </i>
    <i name="e_0_energy">    -24.02654590 </i>
   </energy>
  </scstep>
  <scstep>
   <time name="diag">    0.05    0.05</time>
   <time name="diis">    0.18    0.18</time>
   <time name="orth">    0.00    0.00</time>
   <time name="total">    0.42    0.42</time>
   <energy>
    <i name="e_fr_energy">    -24.02654912 </i>
    <i name="e_wo_entrp">    -24.02654912 </i>
    <i name="e_0_energy">    -24.02654912 </i>
   </energy>
  </scstep>
  <scstep>
   <time name="diag">    0.04    0.05</time>
   <time name="diis">    0.15    0.15</time>
   <time name="orth">    0.00    0.00</time>
   <time name="total">    0.37    0.38</time>
   <energy>
    <i name="e_fr_energy">    -24.02655144 </i>
    <i name="e_wo_entrp">    -24.02655144 </i>
    <i name="e_0_energy">    -24.02655144 </i>
   </energy>
  </scstep>
  <scstep>
   <time name="diag">    0.04    0.04</time>
   <time name="diis">    0.14    0.15</time>
   <time name="orth">    0.00    0.00</time>
   <time name="total">    0.37    0.38</time>
   <energy>
    <i name="e_fr_energy">    -24.02655444 </i>
    <i name="e_wo_entrp">    -24.02655444 </i>
    <i name="e_0_energy">    -24.02655444 </i>
   </energy>
  </scstep>
  <scstep>
   <time name="diag">    0.05    0.05</time>
   <time name="diis">    0.21    0.21</time>
   <time name="orth">    0.00    0.00</time>
   <time name="total">    0.45    0.45</time>
   <energy>
    <i name="e_fr_energy">    -24.02655667 </i>
    <i name="e_wo_entrp">    -24.02655667 </i>
    <i name="e_0_energy">    -24.02655667 </i>
   </energy>
  </scstep>
  <scstep>
   <time name="diag">    0.04    0.05</time>
   <time name="diis">    0.14    0.14</time>
   <time name="orth">    0.00    0.00</time>
   <time name="total">    0.37    0.37</time>
   <energy>
    <i name="e_fr_energy">    -24.02655894 </i>
    <i name="e_wo_entrp">    -24.02655894 </i>
    <i name="e_0_energy">    -24.02655894 </i>
   </energy>
  </scstep>
  <scstep>
   <time name="diag">    0.05    0.05</time>
   <time name="diis">    0.13    0.13</time>
   <time name="orth">    0.00    0.00</time>
   <time name="total">    0.34    0.34</time>
   <energy>
    <i name="alphaZ">      0.23431334 </i>
    <i name="ewald">    130.69374179 </i>
    <i name="hartreedc">   -286.37581091 </i>
    <i name="XCdc">     24.76683030 </i>
    <i name="pawpsdc">    470.09427846 </i>
    <i name="pawaedc">   -470.88355513 </i>
    <i name="eentropy">     -0.00000000 </i>
    <i name="bandstr">    -89.59811171 </i>
    <i name="atom">    197.04175453 </i>
    <i name="e_fr_energy">    -24.02655932 </i>
    <i name="e_wo_entrp">    -24.02655932 </i>
    <i name="e_0_energy">    -24.02655932 </i>
   </energy>
  </scstep>
  <structure>
   <crystal>
    <varray name="basis" >
     <v>      10.24086655       0.00000000       0.00000000 </v>
     <v>       0.15682562      10.21061037       0.00000000 </v>
     <v>      -0.11663233       0.15410315       9.88734717 </v>
    </varray>
    <i name="volume">   1033.87538253 </i>
    <varray name="rec_basis" >
     <v>       0.09764799      -0.00149978       0.00117524 </v>
     <v>       0.00000000       0.09793734      -0.00152644 </v>
     <v>       0.00000000       0.00000000       0.10113936 </v>
    </varray>
   </crystal>
   <varray name="positions" >
    <v>       0.53759529       0.40773634       0.36082305 </v>
    <v>       0.39749229       0.48001220       0.43774155 </v>
    <v>       0.55043887       0.56237228       0.44212659 </v>
    <v>       0.52853038       0.41604699       0.54065947 </v>
    <v>       0.50343441       0.46752357       0.44476354 </v>
   </varray>
  </structure>
  <varray name="forces" >
   <v>       0.01499031       0.01013363      -0.07069500 </v>
   <v>      -0.15805556       0.06599741      -0.04116982 </v>
   <v>       0.10105487       0.24329089      -0.02229325 </v>
   <v>      -0.01817741       0.10614350      -0.12606508 </v>
   <v>       0.06012136      -0.42552229       0.26042181 </v>
  </varray>
  <varray name="stress" >
   <v>      -0.25522268       0.11995629      -0.03310190 </v>
   <v>       0.11995629      -0.31545368       0.12583581 </v>
   <v>      -0.03310190       0.12583581      -0.68303893 </v>
  </varray>
  <energy>
   <i name="e_fr_energy">    -24.02655932 </i>
   <i name="e_wo_entrp">    -24.02655932 </i>
   <i name="e_0_energy">     -0.00000000 </i>
   <i name="kinetic">      0.02889263 </i>
   <i name="lattice kinetic">      0.00000000 </i>
   <i name="nosepot">      0.00000000 </i>
   <i name="nosekinetic">      0.00000000 </i>
   <i name="total">    -23.99766669 </i>
  </energy>
  <time name="totalsc">    3.33    3.36</time>
 </calculation>
 <calculation>
  <scstep>
   <time name="dav">    0.20    0.20</time>
   <time name="total">    0.38    0.38</time>
   <energy>
    <i name="alphaZ">      0.23431334 </i>
    <i name="ewald">    131.49412356 </i>
    <i name="hartreedc">   -287.07411363 </i>
    <i name="XCdc">     24.80389354 </i>
    <i name="pawpsdc">    475.18745138 </i>
    <i name="pawaedc">   -475.97968021 </i>
    <i name="eentropy">     -0.00000000 </i>
    <i name="bandstr">    -89.72818380 </i>
    <i name="atom">    197.04175453 </i>
    <i name="e_fr_energy">    -24.02044129 </i>
    <i name="e_wo_entrp">    -24.02044129 </i>
    <i name="e_0_energy">    -24.02044129 </i>
   </energy>
  </scstep>
  <scstep>
   <time name="diag">    0.05    0.05</time>
   <time name="diis">    0.18    0.18</time>
   <time name="orth">    0.00    0.00</time>
   <time name="total">    0.42    0.42</time>
   <energy>
    <i name="e_fr_energy">    -24.02044274 </i>
    <i name="e_wo_entrp">    -24.02044274 </i>
    <i name="e_0_energy">    -24.02044274 </i>
   </energy>
  </scstep>
  <scstep>
   <time name="diag">    0.04    0.04</time>
   <time name="diis">    0.14    0.14</time>
   <time name="orth">    0.00    0.00</time>
   <time name="total">    0.36    0.37</time>
   <energy>
    <i name="e_fr_energy">    -24.02044315 </i>
    <i name="e_wo_entrp">    -24.02044315 </i>
    <i name="e_0_energy">    -24.02044315 </i>
   </energy>
  </scstep>
  <scstep>
   <time name="diag">    0.04    0.05</time>
   <time name="diis">    0.14    0.14</time>
   <time name="orth">    0.00    0.00</time>
   <time name="total">    0.36    0.37</time>
   <energy>
    <i name="e_fr_energy">    -24.02044425 </i>
    <i name="e_wo_entrp">    -24.02044425 </i>
    <i name="e_0_energy">    -24.02044425 </i>
   </energy>
  </scstep>
  <scstep>
   <time name="diag">    0.04    0.05</time>
   <time name="diis">    0.13    0.14</time>
   <time name="orth">    0.00    0.00</time>
   <time name="total">    0.33    0.34</time>
   <energy>
    <i name="alphaZ">      0.23431334 </i>
    <i name="ewald">    131.49412356 </i>
    <i name="hartreedc">   -287.07253450 </i>
    <i name="XCdc">     24.80384955 </i>
    <i name="pawpsdc">    475.07736024 </i>
    <i name="pawaedc">   -475.86953966 </i>
    <i name="eentropy">     -0.00000000 </i>
    <i name="bandstr">    -89.72977147 </i>
    <i name="atom">    197.04175453 </i>
    <i name="e_fr_energy">    -24.02044441 </i>
    <i name="e_wo_entrp">    -24.02044441 </i>
    <i name="e_0_energy">    -24.02044441 </i>
   </energy>
  </scstep>
  <structure>
   <crystal>
    <varray name="basis" >
     <v>      10.24086655       0.00000000       0.00000000 </v>
     <v>       0.15682562      10.21061037       0.00000000 </v>
     <v>      -0.11663233       0.15410315       9.88734717 </v>
    </varray>
    <i name="volume">   1033.87538253 </i>
    <varray name="rec_basis" >
     <v>       0.09764799      -0.00149978       0.00117524 </v>
     <v>       0.00000000       0.09793734      -0.00152644 </v>
     <v>       0.00000000       0.00000000       0.10113936 </v>
    </varray>
   </crystal>
   <varray name="positions" >
    <v>       0.53751619       0.40796299       0.36090055 </v>
    <v>       0.39803593       0.48007230       0.43769413 </v>
    <v>       0.55000500       0.56162967       0.44210206 </v>
    <v>       0.52863394       0.41598922       0.54095668 </v>
    <v>       0.50342324       0.46756634       0.44473833 </v>
   </varray>
  </structure>
  <varray name="forces" >
   <v>       0.03822439      -0.03919084      -0.11383031 </v>
   <v>      -0.34741309       0.07639847      -0.04557811 </v>
   <v>       0.25257191       0.52494382      -0.02510834 </v>
   <v>      -0.04379561       0.14678857      -0.21996682 </v>
   <v>       0.10046550      -0.70883038       0.40473868 </v>
  </varray>
  <varray name="stress" >
   <v>       0.17036159       0.30261811      -0.08576241 </v>
   <v>       0.30261811       0.11099177       0.23579200 </v>
   <v>      -0.08576241       0.23579200      -0.76684585 </v>
  </varray>
  <energy>
   <i name="e_fr_energy">    -24.02044441 </i>
   <i name="e_wo_entrp">    -24.02044441 </i>
   <i name="e_0_energy">     -0.00000000 </i>
   <i name="kinetic">      0.02289855 </i>
   <i name="lattice kinetic">      0.00000000 </i>
   <i name="nosepot">      0.00000000 </i>
   <i name="nosekinetic">      0.00000000 </i>
   <i name="total">    -23.99754586 </i>
  </energy>
  <time name="totalsc">    2.48    2.54</time>
 </calculation>
 <calculation>
  <scstep>
   <time name="dav">    0.20    0.20</time>
   <time name="total">    0.38    0.39</time>
   <energy>
    <i name="alphaZ">      0.23431334 </i>
    <i name="ewald">    132.18978991 </i>
    <i name="hartreedc">   -287.68118391 </i>
    <i name="XCdc">     24.83624913 </i>
    <i name="pawpsdc">    479.61188558 </i>
    <i name="pawaedc">   -480.40674761 </i>
    <i name="eentropy">     -0.00000000 </i>
    <i name="bandstr">    -89.83796074 </i>
    <i name="atom">    197.04175453 </i>
    <i name="e_fr_energy">    -24.01189977 </i>
    <i name="e_wo_entrp">    -24.01189977 </i>
    <i name="e_0_energy">    -24.01189977 </i>
   </energy>
  </scstep>
  <scstep>
   <time name="diag">    0.04    0.05</time>
   <time name="diis">    0.18    0.19</time>
   <time name="orth">    0.00    0.00</time>
   <time name="total">    0.41    0.44</time>
   <energy>
    <i name="e_fr_energy">    -24.01190041 </i>
    <i name="e_wo_entrp">    -24.01190041 </i>
    <i name="e_0_energy">    -24.01190041 </i>
   </energy>
  </scstep>
  <scstep>
   <time name="diag">    0.26    0.27</time>
   <time name="diis">    0.14    0.14</time>
   <time name="orth">    0.00    0.00</time>
   <time name="total">    0.74    0.77</time>
   <energy>
    <i name="e_fr_energy">    -24.01190053 </i>
    <i name="e_wo_entrp">    -24.01190053 </i>
    <i name="e_0_energy">    -24.01190053 </i>
   </energy>
  </scstep>
  <scstep>
   <time name="diag">    0.04    0.05</time>
   <time name="diis">    0.14    0.14</time>
   <time name="orth">    0.00    0.00</time>
   <time name="total">    0.34    0.35</time>
   <energy>
    <i name="alphaZ">      0.23431334 </i>
    <i name="ewald">    132.18978991 </i>
    <i name="hartreedc">   -287.67323014 </i>
    <i name="XCdc">     24.83587145 </i>
    <i name="pawpsdc">    479.52035851 </i>
    <i name="pawaedc">   -480.31509145 </i>
    <i name="eentropy">     -0.00000000 </i>
    <i name="bandstr">    -89.84566685 </i>
    <i name="atom">    197.04175453 </i>
    <i name="e_fr_energy">    -24.01190070 </i>
    <i name="e_wo_entrp">    -24.01190070 </i>
    <i name="e_0_energy">    -24.01190070 </i>
   </energy>
  </scstep>
  <structure>
   <crystal>
    <varray name="basis" >
     <v>      10.24086655       0.00000000       0.00000000 </v>
     <v>       0.15682562      10.21061037       0.00000000 </v>
     <v>      -0.11663233       0.15410315       9.88734717 </v>
    </varray>
    <i name="volume">   1033.87538253 </i>
    <varray name="rec_basis" >
     <v>       0.09764799      -0.00149978       0.00117524 </v>
     <v>       0.00000000       0.09793734      -0.00152644 </v>
     <v>       0.00000000       0.00000000       0.10113936 </v>
    </varray>
   </crystal>
   <varray name="positions" >
    <v>       0.53744590       0.40818079       0.36095027 </v>
    <v>       0.39849734       0.48015061       0.43763559 </v>
    <v>       0.54962864       0.56101117       0.44207141 </v>
    <v>       0.52872602       0.41596694       0.54120022 </v>
    <v>       0.50341434       0.46759503       0.44472134 </v>
   </varray>
  </structure>
  <varray name="forces" >
   <v>       0.05876764      -0.08351644      -0.15117530 </v>
   <v>      -0.51145784       0.08414903      -0.04858868 </v>
   <v>       0.38577801       0.77137810      -0.02729936 </v>
   <v>      -0.06432846       0.17605221      -0.29249930 </v>
   <v>       0.13138502      -0.94801226       0.51969848 </v>
  </varray>
  <varray name="stress" >
   <v>       0.53640380       0.45901651      -0.12951368 </v>
   <v>       0.45901652       0.48405199       0.32435620 </v>
   <v>      -0.12951368       0.32435620      -0.82797831 </v>
  </varray>
  <energy>
   <i name="e_fr_energy">    -24.01190070 </i>
   <i name="e_wo_entrp">    -24.01190070 </i>
   <i name="e_0_energy">     -0.00000000 </i>
   <i name="kinetic">      0.01454057 </i>
   <i name="lattice kinetic">      0.00000000 </i>
   <i name="nosepot">      0.00000000 </i>
   <i name="nosekinetic">      0.00000000 </i>
   <i name="total">    -23.99736013 </i>
  </energy>
  <time name="totalsc">    2.52    2.61</time>
 </calculation>
 <calculation>
  <scstep>
   <time name="dav">    0.20    0.21</time>
   <time name="total">    0.38    0.39</time>
   <energy>
    <i name="alphaZ">      0.23431334 </i>
    <i name="ewald">    132.71231198 </i>
    <i name="hartreedc">   -288.12560781 </i>
    <i name="XCdc">     24.86001356 </i>
    <i name="pawpsdc">    483.01385494 </i>
    <i name="pawaedc">   -483.81061255 </i>
    <i name="eentropy">     -0.00000000 </i>
    <i name="bandstr">    -89.92993931 </i>
    <i name="atom">    197.04175453 </i>
    <i name="e_fr_energy">    -24.00391132 </i>
    <i name="e_wo_entrp">    -24.00391132 </i>
    <i name="e_0_energy">    -24.00391132 </i>
   </energy>
  </scstep>
  <scstep>
   <time name="diag">    0.04    0.04</time>
   <time name="diis">    0.18    0.18</time>
   <time name="orth">    0.00    0.00</time>
   <time name="total">    0.40    0.41</time>
   <energy>
    <i name="e_fr_energy">    -24.00391200 </i>
    <i name="e_wo_entrp">    -24.00391200 </i>
    <i name="e_0_energy">    -24.00391200 </i>
   </energy>
  </scstep>
  <scstep>
   <time name="diag">    0.04    0.05</time>
   <time name="diis">    0.14    0.15</time>
   <time name="orth">    0.00    0.00</time>
   <time name="total">    0.43    0.45</time>
   <energy>
    <i name="e_fr_energy">    -24.00391215 </i>
    <i name="e_wo_entrp">    -24.00391215 </i>
    <i name="e_0_energy">    -24.00391215 </i>
   </energy>
  </scstep>
  <scstep>
   <time name="diag">    0.04    0.04</time>
   <time name="diis">    0.14    0.14</time>
   <time name="orth">    0.00    0.00</time>
   <time name="total">    0.34    0.35</time>
   <energy>
    <i name="alphaZ">      0.23431334 </i>
    <i name="ewald">    132.71231198 </i>
    <i name="hartreedc">   -288.12339797 </i>
    <i name="XCdc">     24.85991123 </i>
    <i name="pawpsdc">    482.85289982 </i>
    <i name="pawaedc">   -483.64958790 </i>
    <i name="eentropy">     -0.00000000 </i>
    <i name="bandstr">    -89.93211757 </i>
    <i name="atom">    197.04175453 </i>
    <i name="e_fr_energy">    -24.00391253 </i>
    <i name="e_wo_entrp">    -24.00391253 </i>
    <i name="e_0_energy">    -24.00391253 </i>
   </energy>
  </scstep>
  <structure>
   <crystal>
    <varray name="basis" >
     <v>      10.24086655       0.00000000       0.00000000 </v>
     <v>       0.15682562      10.21061037       0.00000000 </v>
     <v>      -0.11663233       0.15410315       9.88734717 </v>
    </varray>
    <i name="volume">   1033.87538253 </i>
    <varray name="rec_basis" >
     <v>       0.09764799      -0.00149978       0.00117524 </v>
     <v>       0.00000000       0.09793734      -0.00152644 </v>
     <v>       0.00000000       0.00000000       0.10113936 </v>
    </varray>
   </crystal>
   <varray name="positions" >
    <v>       0.53738933       0.40837943       0.36096311 </v>
    <v>       0.39883784       0.48024898       0.43756519 </v>
    <v>       0.54934028       0.56057499       0.44203410 </v>
    <v>       0.52880148       0.41598733       0.54137240 </v>
    <v>       0.50340843       0.46760492       0.44471491 </v>
   </varray>
  </structure>
  <varray name="forces" >
   <v>       0.07490250      -0.11941766      -0.17911257 </v>
   <v>      -0.63292024       0.08782655      -0.04938373 </v>
   <v>       0.48460421       0.95233036      -0.02837820 </v>
   <v>      -0.07851665       0.19170292      -0.33884455 </v>
   <v>       0.15208145      -1.11258895       0.59592307 </v>
  </varray>
  <varray name="stress" >
   <v>       0.80628921       0.57157347      -0.16146469 </v>
   <v>       0.57157347       0.76316651       0.38508588 </v>
   <v>      -0.16146470       0.38508588      -0.86225529 </v>
  </varray>
  <energy>
   <i name="e_fr_energy">    -24.00391253 </i>
   <i name="e_wo_entrp">    -24.00391253 </i>
   <i name="e_0_energy">     -0.00000000 </i>
   <i name="kinetic">      0.00673627 </i>
   <i name="lattice kinetic">      0.00000000 </i>
   <i name="nosepot">      0.00000000 </i>
   <i name="nosekinetic">      0.00000000 </i>
   <i name="total">    -23.99717626 </i>
  </energy>
  <dos>
   <i name="efermi">     -8.27878723 </i>
   <total>
    <array>
     <dimension dim="1">gridpoints</dimension>
     <dimension dim="2">spin</dimension>
     <field>energy</field>
     <field>total</field>
     <field>integrated</field>
     <set>
      <set comment="spin 1">
       <r>   -18.9702     0.0000     0.0000 </r>
       <r>   -18.8980     0.0000     0.0000 </r>
       <r>   -18.8258     0.0000     0.0000 </r>
       <r>   -18.7535     0.0000     0.0000 </r>
       <r>   -18.6813     0.0000     0.0000 </r>
       <r>   -18.6090     0.0000     0.0000 </r>
       <r>   -18.5368     0.0000     0.0000 </r>
       <r>   -18.4646     0.0000     0.0000 </r>
       <r>   -18.3923     0.0000     0.0000 </r>
       <r>   -18.3201     0.0000     0.0000 </r>
       <r>   -18.2478     0.0000     0.0000 </r>
       <r>   -18.1756     0.0000     0.0000 </r>
       <r>   -18.1034     0.0000     0.0000 </r>
       <r>   -18.0311     0.0000     0.0000 </r>
       <r>   -17.9589     0.0000     0.0000 </r>
       <r>   -17.8867     0.0000     0.0000 </r>
       <r>   -17.8144     0.0000     0.0000 </r>
       <r>   -17.7422     0.0000     0.0000 </r>
       <r>   -17.6699     0.0001     0.0000 </r>
       <r>   -17.5977     0.0009     0.0001 </r>
       <r>   -17.5255     0.0088     0.0007 </r>
       <r>   -17.4532     0.0640     0.0053 </r>
       <r>   -17.3810     0.3590     0.0311 </r>
       <r>   -17.3087     1.5638     0.1436 </r>
       <r>   -17.2365     5.2869     0.5238 </r>
       <r>   -17.1643    13.8770     1.5217 </r>
       <r>   -17.0920    28.2838     3.5554 </r>
       <r>   -17.0198    44.7726     6.7746 </r>
       <r>   -16.9476    55.0535    10.7327 </r>
       <r>   -16.8753    52.5908    14.5135 </r>
       <r>   -16.8031    39.0326    17.3194 </r>
       <r>   -16.7308    22.5095    18.9373 </r>
       <r>   -16.6586    10.0865    19.6623 </r>
       <r>   -16.5864     3.5120    19.9147 </r>
       <r>   -16.5141     0.9502    19.9830 </r>
       <r>   -16.4419     0.1997    19.9973 </r>
       <r>   -16.3696     0.0326    19.9997 </r>
       <r>   -16.2974     0.0041    20.0000 </r>
       <r>   -16.2252     0.0004    20.0000 </r>
       <r>   -16.1529     0.0000    20.0000 </r>
       <r>   -16.0807     0.0000    20.0000 </r>
       <r>   -16.0085     0.0000    20.0000 </r>
       <r>   -15.9362     0.0000    20.0000 </r>
       <r>   -15.8640     0.0000    20.0000 </r>
       <r>   -15.7917     0.0000    20.0000 </r>
       <r>   -15.7195     0.0000    20.0000 </r>
       <r>   -15.6473     0.0000    20.0000 </r>
       <r>   -15.5750     0.0000    20.0000 </r>
       <r>   -15.5028     0.0000    20.0000 </r>
       <r>   -15.4305     0.0000    20.0000 </r>
       <r>   -15.3583     0.0000    20.0000 </r>
       <r>   -15.2861     0.0000    20.0000 </r>
       <r>   -15.2138     0.0000    20.0000 </r>
       <r>   -15.1416     0.0000    20.0000 </r>
       <r>   -15.0693     0.0000    20.0000 </r>
       <r>   -14.9971     0.0000    20.0000 </r>
       <r>   -14.9249     0.0000    20.0000 </r>
       <r>   -14.8526     0.0000    20.0000 </r>
       <r>   -14.7804     0.0000    20.0000 </r>
       <r>   -14.7082     0.0000    20.0000 </r>
       <r>   -14.6359     0.0000    20.0000 </r>
       <r>   -14.5637     0.0000    20.0000 </r>
       <r>   -14.4914     0.0000    20.0000 </r>
       <r>   -14.4192     0.0000    20.0000 </r>
       <r>   -14.3470     0.0000    20.0000 </r>
       <r>   -14.2747     0.0000    20.0000 </r>
       <r>   -14.2025     0.0000    20.0000 </r>
       <r>   -14.1302     0.0000    20.0000 </r>
       <r>   -14.0580     0.0000    20.0000 </r>
       <r>   -13.9858     0.0000    20.0000 </r>
       <r>   -13.9135     0.0000    20.0000 </r>
       <r>   -13.8413     0.0000    20.0000 </r>
       <r>   -13.7691     0.0000    20.0000 </r>
       <r>   -13.6968     0.0000    20.0000 </r>
       <r>   -13.6246     0.0000    20.0000 </r>
       <r>   -13.5523     0.0000    20.0000 </r>
       <r>   -13.4801     0.0000    20.0000 </r>
       <r>   -13.4079     0.0000    20.0000 </r>
       <r>   -13.3356     0.0000    20.0000 </r>
       <r>   -13.2634     0.0000    20.0000 </r>
       <r>   -13.1911     0.0000    20.0000 </r>
       <r>   -13.1189     0.0000    20.0000 </r>
       <r>   -13.0467     0.0000    20.0000 </r>
       <r>   -12.9744     0.0000    20.0000 </r>
       <r>   -12.9022     0.0000    20.0000 </r>
       <r>   -12.8300     0.0000    20.0000 </r>
       <r>   -12.7577     0.0000    20.0000 </r>
       <r>   -12.6855     0.0000    20.0000 </r>
       <r>   -12.6132     0.0000    20.0000 </r>
       <r>   -12.5410     0.0000    20.0000 </r>
       <r>   -12.4688     0.0000    20.0000 </r>
       <r>   -12.3965     0.0000    20.0000 </r>
       <r>   -12.3243     0.0000    20.0000 </r>
       <r>   -12.2520     0.0000    20.0000 </r>
       <r>   -12.1798     0.0000    20.0000 </r>
       <r>   -12.1076     0.0000    20.0000 </r>
       <r>   -12.0353     0.0000    20.0000 </r>
       <r>   -11.9631     0.0000    20.0000 </r>
       <r>   -11.8909     0.0000    20.0000 </r>
       <r>   -11.8186     0.0000    20.0000 </r>
       <r>   -11.7464     0.0000    20.0000 </r>
       <r>   -11.6741     0.0000    20.0000 </r>
       <r>   -11.6019     0.0000    20.0000 </r>
       <r>   -11.5297     0.0000    20.0000 </r>
       <r>   -11.4574     0.0000    20.0000 </r>
       <r>   -11.3852     0.0000    20.0000 </r>
       <r>   -11.3129     0.0000    20.0000 </r>
       <r>   -11.2407     0.0000    20.0000 </r>
       <r>   -11.1685     0.0000    20.0000 </r>
       <r>   -11.0962     0.0000    20.0000 </r>
       <r>   -11.0240     0.0000    20.0000 </r>
       <r>   -10.9518     0.0000    20.0000 </r>
       <r>   -10.8795     0.0000    20.0000 </r>
       <r>   -10.8073     0.0000    20.0000 </r>
       <r>   -10.7350     0.0000    20.0000 </r>
       <r>   -10.6628     0.0000    20.0000 </r>
       <r>   -10.5906     0.0000    20.0000 </r>
       <r>   -10.5183     0.0000    20.0000 </r>
       <r>   -10.4461     0.0000    20.0000 </r>
       <r>   -10.3738     0.0000    20.0000 </r>
       <r>   -10.3016     0.0000    20.0000 </r>
       <r>   -10.2294     0.0000    20.0000 </r>
       <r>   -10.1571     0.0000    20.0000 </r>
       <r>   -10.0849     0.0002    20.0000 </r>
       <r>   -10.0127     0.0025    20.0002 </r>
       <r>    -9.9404     0.0209    20.0017 </r>
       <r>    -9.8682     0.1413    20.0119 </r>
       <r>    -9.7959     0.7543    20.0662 </r>
       <r>    -9.7237     3.1951    20.2961 </r>
       <r>    -9.6515    10.7622    21.0705 </r>
       <r>    -9.5792    28.8740    23.1473 </r>
       <r>    -9.5070    61.7794    27.5898 </r>
       <r>    -9.4347   105.5116    35.1754 </r>
       <r>    -9.3625   143.9477    45.5230 </r>
       <r>    -9.2903   157.0004    56.8082 </r>
       <r>    -9.2180   137.0226    66.6578 </r>
       <r>    -9.1458    95.7916    73.5444 </r>
       <r>    -9.0736    53.6927    77.4052 </r>
       <r>    -9.0013    24.1428    79.1417 </r>
       <r>    -8.9291     8.7068    79.7682 </r>
       <r>    -8.8568     2.5154    79.9492 </r>
       <r>    -8.7846     0.5808    79.9910 </r>
       <r>    -8.7124     0.1069    79.9987 </r>
       <r>    -8.6401     0.0156    79.9999 </r>
       <r>    -8.5679     0.0018    80.0000 </r>
       <r>    -8.4956     0.0002    80.0000 </r>
       <r>    -8.4234     0.0000    80.0000 </r>
       <r>    -8.3512     0.0000    80.0000 </r>
       <r>    -8.2789     0.0000    80.0000 </r>
       <r>    -8.2067     0.0000    80.0000 </r>
       <r>    -8.1345     0.0000    80.0000 </r>
       <r>    -8.0622     0.0000    80.0000 </r>
       <r>    -7.9900     0.0000    80.0000 </r>
       <r>    -7.9177     0.0000    80.0000 </r>
       <r>    -7.8455     0.0000    80.0000 </r>
       <r>    -7.7733     0.0000    80.0000 </r>
       <r>    -7.7010     0.0000    80.0000 </r>
       <r>    -7.6288     0.0000    80.0000 </r>
       <r>    -7.5565     0.0000    80.0000 </r>
       <r>    -7.4843     0.0000    80.0000 </r>
       <r>    -7.4121     0.0000    80.0000 </r>
       <r>    -7.3398     0.0000    80.0000 </r>
       <r>    -7.2676     0.0000    80.0000 </r>
       <r>    -7.1954     0.0000    80.0000 </r>
       <r>    -7.1231     0.0000    80.0000 </r>
       <r>    -7.0509     0.0000    80.0000 </r>
       <r>    -6.9786     0.0000    80.0000 </r>
       <r>    -6.9064     0.0000    80.0000 </r>
       <r>    -6.8342     0.0000    80.0000 </r>
       <r>    -6.7619     0.0000    80.0000 </r>
       <r>    -6.6897     0.0000    80.0000 </r>
       <r>    -6.6174     0.0000    80.0000 </r>
       <r>    -6.5452     0.0000    80.0000 </r>
       <r>    -6.4730     0.0000    80.0000 </r>
       <r>    -6.4007     0.0000    80.0000 </r>
       <r>    -6.3285     0.0000    80.0000 </r>
       <r>    -6.2562     0.0000    80.0000 </r>
       <r>    -6.1840     0.0000    80.0000 </r>
       <r>    -6.1118     0.0000    80.0000 </r>
       <r>    -6.0395     0.0000    80.0000 </r>
       <r>    -5.9673     0.0000    80.0000 </r>
       <r>    -5.8951     0.0000    80.0000 </r>
       <r>    -5.8228     0.0000    80.0000 </r>
       <r>    -5.7506     0.0000    80.0000 </r>
       <r>    -5.6783     0.0000    80.0000 </r>
       <r>    -5.6061     0.0000    80.0000 </r>
       <r>    -5.5339     0.0000    80.0000 </r>
       <r>    -5.4616     0.0000    80.0000 </r>
       <r>    -5.3894     0.0000    80.0000 </r>
       <r>    -5.3171     0.0000    80.0000 </r>
       <r>    -5.2449     0.0000    80.0000 </r>
       <r>    -5.1727     0.0000    80.0000 </r>
       <r>    -5.1004     0.0000    80.0000 </r>
       <r>    -5.0282     0.0000    80.0000 </r>
       <r>    -4.9560     0.0000    80.0000 </r>
       <r>    -4.8837     0.0000    80.0000 </r>
       <r>    -4.8115     0.0000    80.0000 </r>
       <r>    -4.7392     0.0000    80.0000 </r>
       <r>    -4.6670     0.0000    80.0000 </r>
       <r>    -4.5948     0.0000    80.0000 </r>
       <r>    -4.5225     0.0000    80.0000 </r>
       <r>    -4.4503     0.0000    80.0000 </r>
       <r>    -4.3780     0.0000    80.0000 </r>
       <r>    -4.3058     0.0000    80.0000 </r>
       <r>    -4.2336     0.0000    80.0000 </r>
       <r>    -4.1613     0.0000    80.0000 </r>
       <r>    -4.0891     0.0000    80.0000 </r>
       <r>    -4.0169     0.0000    80.0000 </r>
       <r>    -3.9446     0.0000    80.0000 </r>
       <r>    -3.8724     0.0000    80.0000 </r>
       <r>    -3.8001     0.0000    80.0000 </r>
       <r>    -3.7279     0.0000    80.0000 </r>
       <r>    -3.6557     0.0000    80.0000 </r>
       <r>    -3.5834     0.0000    80.0000 </r>
       <r>    -3.5112     0.0000    80.0000 </r>
       <r>    -3.4389     0.0000    80.0000 </r>
       <r>    -3.3667     0.0000    80.0000 </r>
       <r>    -3.2945     0.0000    80.0000 </r>
       <r>    -3.2222     0.0000    80.0000 </r>
       <r>    -3.1500     0.0000    80.0000 </r>
       <r>    -3.0778     0.0000    80.0000 </r>
       <r>    -3.0055     0.0000    80.0000 </r>
       <r>    -2.9333     0.0000    80.0000 </r>
[...]
       <r>     0.2452     4.9144   100.4654 </r>
       <r>     0.3175    14.5536   101.5113 </r>
       <r>     0.3897    35.0182   104.0280 </r>
       <r>     0.4619    68.3865   108.9434 </r>
       <r>     0.5342   109.0328   116.7812 </r>
       <r>     0.6064   142.2893   127.0106 </r>
       <r>     0.6786   151.6869   137.9163 </r>
       <r>     0.7509   131.3199   147.3584 </r>
       <r>     0.8231    91.5928   153.9444 </r>
       <r>     0.8954    51.0495   157.6154 </r>
       <r>     0.9676    22.5742   159.2387 </r>
       <r>     1.0398     7.8750   159.8051 </r>
       <r>     1.1121     2.1580   159.9603 </r>
       <r>     1.1843     0.4631   159.9936 </r>
       <r>     1.2566     0.0777   159.9992 </r>
       <r>     1.3288     0.0102   159.9999 </r>
       <r>     1.4010     0.0010   160.0000 </r>
       <r>     1.4733     0.0001   160.0000 </r>
       <r>     1.5455     0.0000   160.0000 </r>
       <r>     1.6177     0.0000   160.0000 </r>
       <r>     1.6900     0.0000   160.0000 </r>
       <r>     1.7622     0.0000   160.0000 </r>
       <r>     1.8345     0.0000   160.0000 </r>
       <r>     1.9067     0.0000   160.0000 </r>
       <r>     1.9789     0.0000   160.0000 </r>
       <r>     2.0512     0.0000   160.0000 </r>
       <r>     2.1234     0.0000   160.0000 </r>
       <r>     2.1957     0.0000   160.0000 </r>
       <r>     2.2679     0.0000   160.0000 </r>
       <r>     2.3401     0.0000   160.0000 </r>
       <r>     2.4124     0.0000   160.0000 </r>
       <r>     2.4846     0.0000   160.0000 </r>
       <r>     2.5569     0.0000   160.0000 </r>
       <r>     2.6291     0.0000   160.0000 </r>
       <r>     2.7013     0.0000   160.0000 </r>
      </set>
     </set>
    </array>
   </total>
  </dos>
  <time name="totalsc">    2.43    2.47</time>
  <eigenvalues>
   <array>
    <dimension dim="1">band</dimension>
    <dimension dim="2">kpoint</dimension>
    <dimension dim="3">spin</dimension>
    <field>eigene</field>
    <field>occ</field>
    <set>
     <set comment="spin 1">
      <set comment="kpoint 1">
       <r>  -16.9798    1.0000 </r>
       <r>   -9.4409    1.0000 </r>
       <r>   -9.3464    1.0000 </r>
       <r>   -9.2221    1.0000 </r>
       <r>   -0.3061    0.0000 </r>
       <r>    0.5470    0.0000 </r>
       <r>    0.6602    0.0000 </r>
       <r>    0.6941    0.0000 </r>
      </set>
      <set comment="kpoint 2">
       <r>  -16.9798    1.0000 </r>
       <r>   -9.4410    1.0000 </r>
       <r>   -9.3463    1.0000 </r>
       <r>   -9.2221    1.0000 </r>
       <r>   -0.3054    0.0000 </r>
       <r>    0.5364    0.0000 </r>
       <r>    0.6626    0.0000 </r>
       <r>    0.6936    0.0000 </r>
      </set>
      <set comment="kpoint 3">
       <r>  -16.9799    1.0000 </r>
       <r>   -9.4410    1.0000 </r>
       <r>   -9.3463    1.0000 </r>
       <r>   -9.2221    1.0000 </r>
       <r>   -0.2994    0.0000 </r>
       <r>    0.5224    0.0000 </r>
       <r>    0.6547    0.0000 </r>
       <r>    0.6779    0.0000 </r>
      </set>
      <set comment="kpoint 4">
       <r>  -16.9798    1.0000 </r>
       <r>   -9.4409    1.0000 </r>
       <r>   -9.3463    1.0000 </r>
       <r>   -9.2221    1.0000 </r>
       <r>   -0.3052    0.0000 </r>
       <r>    0.5449    0.0000 </r>
       <r>    0.6606    0.0000 </r>
       <r>    0.6901    0.0000 </r>
      </set>
     </set>
    </set>
   </array>
  </eigenvalues>
  <separator name="orbital magnetization" >
   <v name="MAGDIPOLOUT">      0.00000000      0.00000000      0.00000000</v>
  </separator>
  <dos>
   <i name="efermi">     -8.28723721 </i>
   <total>
    <array>
     <dimension dim="1">gridpoints</dimension>
     <dimension dim="2">spin</dimension>
     <field>energy</field>
     <field>total</field>
     <field>integrated</field>
     <set>
      <set comment="spin 1">
       <r>   -18.9799     0.0000     0.0000 </r>
       <r>   -18.9076     0.0000     0.0000 </r>
       <r>   -18.8354     0.0000     0.0000 </r>
       <r>   -18.7631     0.0000     0.0000 </r>
       <r>   -18.6909     0.0000     0.0000 </r>
       <r>   -18.6186     0.0000     0.0000 </r>
       <r>   -18.5464     0.0000     0.0000 </r>
       <r>   -18.4741     0.0000     0.0000 </r>
       <r>   -18.4019     0.0000     0.0000 </r>
       <r>   -18.3296     0.0000     0.0000 </r>
       <r>   -18.2574     0.0000     0.0000 </r>
       <r>   -18.1851     0.0000     0.0000 </r>
       <r>   -18.1129     0.0000     0.0000 </r>
       <r>   -18.0407     0.0000     0.0000 </r>
       <r>   -17.9684     0.0000     0.0000 </r>
       <r>   -17.8962     0.0000     0.0000 </r>
       <r>   -17.8239     0.0000     0.0000 </r>
       <r>   -17.7517     0.0000     0.0000 </r>
       <r>   -17.6794     0.0000     0.0000 </r>
       <r>   -17.6072     0.0001     0.0000 </r>
       <r>   -17.5349     0.0011     0.0001 </r>
       <r>   -17.4627     0.0077     0.0006 </r>
       <r>   -17.3904     0.0422     0.0037 </r>
       <r>   -17.3182     0.1805     0.0167 </r>
       <r>   -17.2459     0.5972     0.0599 </r>
       <r>   -17.1737     1.5302     0.1704 </r>
       <r>   -17.1014     3.0366     0.3898 </r>
       <r>   -17.0292     4.6674     0.7270 </r>
       <r>   -16.9570     5.5572     1.1285 </r>
       <r>   -16.8847     5.1256     1.4988 </r>
       <r>   -16.8125     3.6620     1.7634 </r>
       <r>   -16.7402     2.0266     1.9098 </r>
       <r>   -16.6680     0.8687     1.9726 </r>
       <r>   -16.5957     0.2884     1.9934 </r>
       <r>   -16.5235     0.0741     1.9987 </r>
       <r>   -16.4512     0.0147     1.9998 </r>
       <r>   -16.3790     0.0023     2.0000 </r>
       <r>   -16.3067     0.0003     2.0000 </r>
       <r>   -16.2345     0.0000     2.0000 </r>
       <r>   -16.1622     0.0000     2.0000 </r>
       <r>   -16.0900     0.0000     2.0000 </r>
       <r>   -16.0178     0.0000     2.0000 </r>
       <r>   -15.9455     0.0000     2.0000 </r>
       <r>   -15.8733     0.0000     2.0000 </r>
       <r>   -15.8010     0.0000     2.0000 </r>
       <r>   -15.7288     0.0000     2.0000 </r>
       <r>   -15.6565     0.0000     2.0000 </r>
       <r>   -15.5843     0.0000     2.0000 </r>
       <r>   -15.5120     0.0000     2.0000 </r>
       <r>   -15.4398     0.0000     2.0000 </r>
       <r>   -15.3675     0.0000     2.0000 </r>
       <r>   -15.2953     0.0000     2.0000 </r>
       <r>   -15.2230     0.0000     2.0000 </r>
       <r>   -15.1508     0.0000     2.0000 </r>
       <r>   -15.0785     0.0000     2.0000 </r>
       <r>   -15.0063     0.0000     2.0000 </r>
       <r>   -14.9341     0.0000     2.0000 </r>
       <r>   -14.8618     0.0000     2.0000 </r>
       <r>   -14.7896     0.0000     2.0000 </r>
       <r>   -14.7173     0.0000     2.0000 </r>
       <r>   -14.6451     0.0000     2.0000 </r>
       <r>   -14.5728     0.0000     2.0000 </r>
       <r>   -14.5006     0.0000     2.0000 </r>
       <r>   -14.4283     0.0000     2.0000 </r>
       <r>   -14.3561     0.0000     2.0000 </r>
       <r>   -14.2838     0.0000     2.0000 </r>
       <r>   -14.2116     0.0000     2.0000 </r>
       <r>   -14.1393     0.0000     2.0000 </r>
       <r>   -14.0671     0.0000     2.0000 </r>
       <r>   -13.9948     0.0000     2.0000 </r>
       <r>   -13.9226     0.0000     2.0000 </r>
       <r>   -13.8504     0.0000     2.0000 </r>
       <r>   -13.7781     0.0000     2.0000 </r>
       <r>   -13.7059     0.0000     2.0000 </r>
       <r>   -13.6336     0.0000     2.0000 </r>
       <r>   -13.5614     0.0000     2.0000 </r>
       <r>   -13.4891     0.0000     2.0000 </r>
       <r>   -13.4169     0.0000     2.0000 </r>
       <r>   -13.3446     0.0000     2.0000 </r>
       <r>   -13.2724     0.0000     2.0000 </r>
       <r>   -13.2001     0.0000     2.0000 </r>
       <r>   -13.1279     0.0000     2.0000 </r>
       <r>   -13.0556     0.0000     2.0000 </r>
       <r>   -12.9834     0.0000     2.0000 </r>
       <r>   -12.9112     0.0000     2.0000 </r>
       <r>   -12.8389     0.0000     2.0000 </r>
       <r>   -12.7667     0.0000     2.0000 </r>
       <r>   -12.6944     0.0000     2.0000 </r>
       <r>   -12.6222     0.0000     2.0000 </r>
       <r>   -12.5499     0.0000     2.0000 </r>
       <r>   -12.4777     0.0000     2.0000 </r>
       <r>   -12.4054     0.0000     2.0000 </r>
       <r>   -12.3332     0.0000     2.0000 </r>
       <r>   -12.2609     0.0000     2.0000 </r>
       <r>   -12.1887     0.0000     2.0000 </r>
       <r>   -12.1164     0.0000     2.0000 </r>
       <r>   -12.0442     0.0000     2.0000 </r>
       <r>   -11.9719     0.0000     2.0000 </r>
       <r>   -11.8997     0.0000     2.0000 </r>
       <r>   -11.8275     0.0000     2.0000 </r>
       <r>   -11.7552     0.0000     2.0000 </r>
       <r>   -11.6830     0.0000     2.0000 </r>
       <r>   -11.6107     0.0000     2.0000 </r>
       <r>   -11.5385     0.0000     2.0000 </r>
       <r>   -11.4662     0.0000     2.0000 </r>
       <r>   -11.3940     0.0000     2.0000 </r>
       <r>   -11.3217     0.0000     2.0000 </r>
       <r>   -11.2495     0.0000     2.0000 </r>
       <r>   -11.1772     0.0000     2.0000 </r>
       <r>   -11.1050     0.0000     2.0000 </r>
       <r>   -11.0327     0.0000     2.0000 </r>
       <r>   -10.9605     0.0000     2.0000 </r>
       <r>   -10.8883     0.0000     2.0000 </r>
       <r>   -10.8160     0.0000     2.0000 </r>
       <r>   -10.7438     0.0000     2.0000 </r>
       <r>   -10.6715     0.0000     2.0000 </r>
       <r>   -10.5993     0.0000     2.0000 </r>
       <r>   -10.5270     0.0000     2.0000 </r>
       <r>   -10.4548     0.0000     2.0000 </r>
       <r>   -10.3825     0.0000     2.0000 </r>
       <r>   -10.3103     0.0000     2.0000 </r>
       <r>   -10.2380     0.0000     2.0000 </r>
       <r>   -10.1658     0.0000     2.0000 </r>
       <r>   -10.0935     0.0001     2.0000 </r>
       <r>   -10.0213     0.0005     2.0000 </r>
       <r>    -9.9490     0.0042     2.0003 </r>
       <r>    -9.8768     0.0261     2.0022 </r>
       <r>    -9.8046     0.1264     2.0114 </r>
       <r>    -9.7323     0.4797     2.0460 </r>
       <r>    -9.6601     1.4358     2.1498 </r>
       <r>    -9.5878     3.4142     2.3964 </r>
       <r>    -9.5156     6.5145     2.8671 </r>
       <r>    -9.4433    10.1044     3.5971 </r>
       <r>    -9.3711    12.9393     4.5319 </r>
       <r>    -9.2988    13.8910     5.5355 </r>
       <r>    -9.2266    12.6302     6.4480 </r>
       <r>    -9.1543     9.7294     7.1509 </r>
       <r>    -9.0821     6.2854     7.6050 </r>
       <r>    -9.0098     3.3496     7.8470 </r>
       <r>    -8.9376     1.4473     7.9515 </r>
       <r>    -8.8654     0.4997     7.9876 </r>
       <r>    -8.7931     0.1364     7.9975 </r>
       <r>    -8.7209     0.0292     7.9996 </r>
       <r>    -8.6486     0.0049     7.9999 </r>
       <r>    -8.5764     0.0006     8.0000 </r>
       <r>    -8.5041     0.0001     8.0000 </r>
       <r>    -8.4319     0.0000     8.0000 </r>
       <r>    -8.3596     0.0000     8.0000 </r>
       <r>    -8.2874     0.0000     8.0000 </r>
       <r>    -8.2151     0.0000     8.0000 </r>
       <r>    -8.1429     0.0000     8.0000 </r>
       <r>    -8.0706     0.0000     8.0000 </r>
       <r>    -7.9984     0.0000     8.0000 </r>
       <r>    -7.9261     0.0000     8.0000 </r>
       <r>    -7.8539     0.0000     8.0000 </r>
       <r>    -7.7817     0.0000     8.0000 </r>
       <r>    -7.7094     0.0000     8.0000 </r>
       <r>    -7.6372     0.0000     8.0000 </r>
       <r>    -7.5649     0.0000     8.0000 </r>
       <r>    -7.4927     0.0000     8.0000 </r>
       <r>    -7.4204     0.0000     8.0000 </r>
       <r>    -7.3482     0.0000     8.0000 </r>
       <r>    -7.2759     0.0000     8.0000 </r>
       <r>    -7.2037     0.0000     8.0000 </r>
       <r>    -7.1314     0.0000     8.0000 </r>
       <r>    -7.0592     0.0000     8.0000 </r>
       <r>    -6.9869     0.0000     8.0000 </r>
       <r>    -6.9147     0.0000     8.0000 </r>
       <r>    -6.8424     0.0000     8.0000 </r>
       <r>    -6.7702     0.0000     8.0000 </r>
       <r>    -6.6980     0.0000     8.0000 </r>
       <r>    -6.6257     0.0000     8.0000 </r>
       <r>    -6.5535     0.0000     8.0000 </r>
       <r>    -6.4812     0.0000     8.0000 </r>
       <r>    -6.4090     0.0000     8.0000 </r>
       <r>    -6.3367     0.0000     8.0000 </r>
       <r>    -6.2645     0.0000     8.0000 </r>
       <r>    -6.1922     0.0000     8.0000 </r>
       <r>    -6.1200     0.0000     8.0000 </r>
       <r>    -6.0477     0.0000     8.0000 </r>
       <r>    -5.9755     0.0000     8.0000 </r>
       <r>    -5.9032     0.0000     8.0000 </r>
       <r>    -5.8310     0.0000     8.0000 </r>
       <r>    -5.7588     0.0000     8.0000 </r>
       <r>    -5.6865     0.0000     8.0000 </r>
       <r>    -5.6143     0.0000     8.0000 </r>
       <r>    -5.5420     0.0000     8.0000 </r>
       <r>    -5.4698     0.0000     8.0000 </r>
       <r>    -5.3975     0.0000     8.0000 </r>
       <r>    -5.3253     0.0000     8.0000 </r>
       <r>    -5.2530     0.0000     8.0000 </r>
       <r>    -5.1808     0.0000     8.0000 </r>
       <r>    -5.1085     0.0000     8.0000 </r>
       <r>    -5.0363     0.0000     8.0000 </r>
       <r>    -4.9640     0.0000     8.0000 </r>
       <r>    -4.8918     0.0000     8.0000 </r>
       <r>    -4.8195     0.0000     8.0000 </r>
       <r>    -4.7473     0.0000     8.0000 </r>
       <r>    -4.6751     0.0000     8.0000 </r>
       <r>    -4.6028     0.0000     8.0000 </r>
       <r>    -4.5306     0.0000     8.0000 </r>
       <r>    -4.4583     0.0000     8.0000 </r>
       <r>    -4.3861     0.0000     8.0000 </r>
       <r>    -4.3138     0.0000     8.0000 </r>
       <r>    -4.2416     0.0000     8.0000 </r>
       <r>    -4.1693     0.0000     8.0000 </r>
       <r>    -4.0971     0.0000     8.0000 </r>
       <r>    -4.0248     0.0000     8.0000 </r>
       <r>    -3.9526     0.0000     8.0000 </r>
       <r>    -3.8803     0.0000     8.0000 </r>
       <r>    -3.8081     0.0000     8.0000 </r>
       <r>    -3.7359     0.0000     8.0000 </r>
       <r>    -3.6636     0.0000     8.0000 </r>
       <r>    -3.5914     0.0000     8.0000 </r>
       <r>    -3.5191     0.0000     8.0000 </r>
       <r>    -3.4469     0.0000     8.0000 </r>
       <r>    -3.3746     0.0000     8.0000 </r>
       <r>    -3.3024     0.0000     8.0000 </r>
       <r>    -3.2301     0.0000     8.0000 </r>
       <r>    -3.1579     0.0000     8.0000 </r>
       <r>    -3.0856     0.0000     8.0000 </r>
       <r>    -3.0134     0.0000     8.0000 </r>
       <r>    -2.9411     0.0000     8.0000 </r>
       <r>    -2.8689     0.0000     8.0000 </r>
       <r>    -2.7966     0.0000     8.0000 </r>
       <r>    -2.7244     0.0000     8.0000 </r>
       <r>    -2.6522     0.0000     8.0000 </r>
       <r>    -2.5799     0.0000     8.0000 </r>
       <r>    -2.5077     0.0000     8.0000 </r>
       <r>    -2.4354     0.0000     8.0000 </r>
       <r>    -2.3632     0.0000     8.0000 </r>
       <r>    -2.2909     0.0000     8.0000 </r>
       <r>    -2.2187     0.0000     8.0000 </r>
       <r>    -2.1464     0.0000     8.0000 </r>
       <r>    -2.0742     0.0000     8.0000 </r>
       <r>    -2.0019     0.0000     8.0000 </r>
       <r>    -1.9297     0.0000     8.0000 </r>
       <r>    -1.8574     0.0000     8.0000 </r>
       <r>    -1.7852     0.0000     8.0000 </r>
       <r>    -1.7129     0.0000     8.0000 </r>
       <r>    -1.6407     0.0000     8.0000 </r>
       <r>    -1.5685     0.0000     8.0000 </r>
       <r>    -1.4962     0.0000     8.0000 </r>
       <r>    -1.4240     0.0000     8.0000 </r>
       <r>    -1.3517     0.0000     8.0000 </r>
       <r>    -1.2795     0.0000     8.0000 </r>
       <r>    -1.2072     0.0000     8.0000 </r>
       <r>    -1.1350     0.0000     8.0000 </r>
       <r>    -1.0627     0.0000     8.0000 </r>
       <r>    -0.9905     0.0000     8.0000 </r>
       <r>    -0.9182     0.0002     8.0000 </r>
       <r>    -0.8460     0.0016     8.0001 </r>
       <r>    -0.7737     0.0107     8.0009 </r>
       <r>    -0.7015     0.0561     8.0050 </r>
       <r>    -0.6293     0.2289     8.0215 </r>
       <r>    -0.5570     0.7225     8.0737 </r>
       <r>    -0.4848     1.7667     8.2013 </r>
       <r>    -0.4125     3.3461     8.4431 </r>
       <r>    -0.3403     4.9094     8.7978 </r>
       <r>    -0.2680     5.5801     9.2009 </r>
       <r>    -0.1958     4.9137     9.5559 </r>
       <r>    -0.1235     3.3520     9.7981 </r>
       <r>    -0.0513     1.7717     9.9261 </r>
       <r>     0.0210     0.7284     9.9787 </r>
       <r>     0.0932     0.2510     9.9968 </r>
       <r>     0.1655     0.1608    10.0084 </r>
       <r>     0.2377     0.4162    10.0385 </r>
       <r>     0.3100     1.2533    10.1291 </r>
       <r>     0.3822     3.0986    10.3529 </r>
       <r>     0.4544     6.2142    10.8019 </r>
       <r>     0.5267    10.1856    11.5378 </r>
       <r>     0.5989    13.7045    12.5279 </r>
       <r>     0.6712    15.1136    13.6198 </r>
       <r>     0.7434    13.5700    14.6001 </r>
       <r>     0.8157     9.8251    15.3100 </r>
       <r>     0.8879     5.6803    15.7204 </r>
       <r>     0.9602     2.6004    15.9082 </r>
       <r>     1.0324     0.9366    15.9759 </r>
       <r>     1.1047     0.2642    15.9950 </r>
       <r>     1.1769     0.0582    15.9992 </r>
       <r>     1.2492     0.0100    15.9999 </r>
       <r>     1.3214     0.0013    16.0000 </r>
       <r>     1.3936     0.0001    16.0000 </r>
       <r>     1.4659     0.0000    16.0000 </r>
       <r>     1.5381     0.0000    16.0000 </r>
       <r>     1.6104     0.0000    16.0000 </r>
       <r>     1.6826     0.0000    16.0000 </r>
       <r>     1.7549     0.0000    16.0000 </r>
       <r>     1.8271     0.0000    16.0000 </r>
       <r>     1.8994     0.0000    16.0000 </r>
       <r>     1.9716     0.0000    16.0000 </r>
       <r>     2.0439     0.0000    16.0000 </r>
       <r>     2.1161     0.0000    16.0000 </r>
       <r>     2.1884     0.0000    16.0000 </r>
       <r>     2.2606     0.0000    16.0000 </r>
       <r>     2.3329     0.0000    16.0000 </r>
       <r>     2.4051     0.0000    16.0000 </r>
       <r>     2.4773     0.0000    16.0000 </r>
       <r>     2.5496     0.0000    16.0000 </r>
       <r>     2.6218     0.0000    16.0000 </r>
       <r>     2.6941     0.0000    16.0000 </r>
      </set>
     </set>
    </array>
   </total>
  </dos>
 </calculation>
 <structure name="finalpos" >
  <crystal>
   <varray name="basis" >
    <v>      10.24086655       0.00000000       0.00000000 </v>
    <v>       0.15682562      10.21061037       0.00000000 </v>
    <v>      -0.11663233       0.15410315       9.88734717 </v>
   </varray>
   <i name="volume">   1033.87538253 </i>
   <varray name="rec_basis" >
    <v>       0.09764799      -0.00149978       0.00117524 </v>
    <v>       0.00000000       0.09793734      -0.00152644 </v>
    <v>       0.00000000       0.00000000       0.10113936 </v>
   </varray>
  </crystal>
  <varray name="positions" >
   <v>       0.53735033       0.40855051       0.36093225 </v>
   <v>       0.39902879       0.48036828       0.43748274 </v>
   <v>       0.54916253       0.56036389       0.44198986 </v>
   <v>       0.52885679       0.41605425       0.54146191 </v>
   <v>       0.50340597       0.46759275       0.44472057 </v>
  </varray>
  <varray name="velocities" >
   <v>      -0.00003901       0.00017108      -0.00003086 </v>
   <v>       0.00019096       0.00011930      -0.00008245 </v>
   <v>      -0.00017775      -0.00021109      -0.00004424 </v>
   <v>       0.00005531       0.00006692       0.00008951 </v>
   <v>      -0.00000246      -0.00001217       0.00000566 </v>
  </varray>
 </structure>
</modeling>
