unknown system                          
           1
    10.240867    0.000000    0.000000
     0.156826   10.210610    0.000000
    -0.116632    0.154103    9.887347
   H    C 
   4   1
Direct configuration=     1
   0.53795126  0.40681638  0.36036050
   0.39493457  0.47988990  0.43785684
   0.55241313  0.56589751  0.44218348
   0.52805342  0.41651182  0.53914442
   0.50349306  0.46727815  0.44491385
Direct configuration=     2
   0.53792968  0.40686925  0.36039128
   0.39509135  0.47989371  0.43785243
   0.55229410  0.56568172  0.44218173
   0.52808253  0.41647707  0.53924249
   0.50348929  0.46729429  0.44490364
Direct configuration=     3
   0.53788813  0.40697218  0.36045011
   0.39539369  0.47990167  0.43784321
   0.55206434  0.56526552  0.44217751
   0.52813920  0.41641223  0.53942994
   0.50348199  0.46732510  0.44488425
Direct configuration=     4
   0.53782941  0.40711947  0.36053151
   0.39581994  0.47991523  0.43782855
   0.55173891  0.56467811  0.44217045
   0.52821888  0.41632542  0.53968969
   0.50347185  0.46736785  0.44485766
Direct configuration=     5
   0.53775760  0.40730292  0.36062751
   0.39633880  0.47993645  0.43780750
   0.55133991  0.56396220  0.44216005
   0.52831546  0.41622733  0.53999903
   0.50345981  0.46741858  0.44482653
Direct configuration=     6
   0.53767769  0.40751235  0.36072831
   0.39691106  0.47996785  0.43777892
   0.55089561  0.56317245  0.44214567
   0.52842181  0.41613029  0.54033150
   0.50344696  0.46747236  0.44479403
Direct configuration=     7
   0.53759529  0.40773634  0.36082305
   0.39749229  0.48001220  0.43774155
   0.55043887  0.56237228  0.44212659
   0.52853038  0.41604699  0.54065947
   0.50343441  0.46752357  0.44476354
Direct configuration=     8
   0.53751619  0.40796299  0.36090055
   0.39803593  0.48007230  0.43769413
   0.55000500  0.56162967  0.44210206
   0.52863394  0.41598922  0.54095668
   0.50342324  0.46756634  0.44473833
Direct configuration=     9
   0.53744590  0.40818079  0.36095027
   0.39849734  0.48015061  0.43763559
   0.54962864  0.56101117  0.44207141
   0.52872602  0.41596694  0.54120022
   0.50341434  0.46759503  0.44472134
Direct configuration=    10
   0.53738933  0.40837943  0.36096311
   0.39883784  0.48024898  0.43756519
   0.54934028  0.56057499  0.44203410
   0.52880148  0.41598733  0.54137240
   0.50340843  0.46760492  0.44471491
