   5   5   0   0
  0.2064636E+03  0.1014341E-08  0.1025400E-08  0.9928884E-09  0.5000000E-15
  1.000000000000000E-004
  CAR 
 unknown system                          
      2.70319514    -18.95706114  301     -8.27126420      1.00000000
    -18.957  0.0000E+00  0.0000E+00
    -18.885  0.0000E+00  0.0000E+00
    -18.813  0.0000E+00  0.0000E+00
    -18.740  0.0000E+00  0.0000E+00
    -18.668  0.0000E+00  0.0000E+00
    -18.596  0.0000E+00  0.0000E+00
    -18.524  0.0000E+00  0.0000E+00
    -18.452  0.0000E+00  0.0000E+00
    -18.379  0.0000E+00  0.0000E+00
    -18.307  0.0000E+00  0.0000E+00
    -18.235  0.0000E+00  0.0000E+00
    -18.163  0.0000E+00  0.0000E+00
    -18.091  0.1266E-13  0.9104E-15
    -18.018  0.6855E-12  0.5022E-13
    -17.946  0.2953E-10  0.2174E-11
    -17.874  0.9851E-09  0.7303E-10
    -17.802  0.2546E-07  0.1904E-08
    -17.730  0.5097E-06  0.3857E-07
    -17.657  0.7909E-05  0.6075E-06
    -17.585  0.9514E-04  0.7451E-05
    -17.513  0.8874E-03  0.7128E-04
    -17.441  0.6420E-02  0.5330E-03
    -17.369  0.3603E-01  0.3124E-02
    -17.296  0.1569E+00  0.1441E-01
    -17.224  0.5303E+00  0.5254E-01
    -17.152  0.1391E+01  0.1526E+00
    -17.080  0.2834E+01  0.3564E+00
    -17.008  0.4483E+01  0.6788E+00
    -16.935  0.5508E+01  0.1075E+01
    -16.863  0.5257E+01  0.1453E+01
    -16.791  0.3897E+01  0.1733E+01
    -16.719  0.2244E+01  0.1894E+01
    -16.647  0.1004E+01  0.1966E+01
    -16.574  0.3488E+00  0.1992E+01
    -16.502  0.9414E-01  0.1998E+01
    -16.430  0.1974E-01  0.2000E+01
    -16.358  0.3214E-02  0.2000E+01
    -16.286  0.4064E-03  0.2000E+01
    -16.213  0.3990E-04  0.2000E+01
    -16.141  0.3041E-05  0.2000E+01
    -16.069  0.1800E-06  0.2000E+01
    -15.997  0.8267E-08  0.2000E+01
    -15.925  0.2947E-09  0.2000E+01
    -15.852  0.8154E-11  0.2000E+01
    -15.780  0.1754E-12  0.2000E+01
    -15.708  0.2786E-14  0.2000E+01
    -15.636  0.0000E+00  0.2000E+01
    -15.564  0.0000E+00  0.2000E+01
    -15.491  0.0000E+00  0.2000E+01
    -15.419  0.0000E+00  0.2000E+01
    -15.347  0.0000E+00  0.2000E+01
    -15.275  0.0000E+00  0.2000E+01
    -15.203  0.0000E+00  0.2000E+01
    -15.130  0.0000E+00  0.2000E+01
    -15.058  0.0000E+00  0.2000E+01
    -14.986  0.0000E+00  0.2000E+01
    -14.914  0.0000E+00  0.2000E+01
    -14.842  0.0000E+00  0.2000E+01
    -14.769  0.0000E+00  0.2000E+01
    -14.697  0.0000E+00  0.2000E+01
    -14.625  0.0000E+00  0.2000E+01
    -14.553  0.0000E+00  0.2000E+01
    -14.481  0.0000E+00  0.2000E+01
    -14.408  0.0000E+00  0.2000E+01
    -14.336  0.0000E+00  0.2000E+01
    -14.264  0.0000E+00  0.2000E+01
    -14.192  0.0000E+00  0.2000E+01
    -14.120  0.0000E+00  0.2000E+01
    -14.047  0.0000E+00  0.2000E+01
    -13.975  0.0000E+00  0.2000E+01
    -13.903  0.0000E+00  0.2000E+01
    -13.831  0.0000E+00  0.2000E+01
    -13.759  0.0000E+00  0.2000E+01
    -13.686  0.0000E+00  0.2000E+01
    -13.614  0.0000E+00  0.2000E+01
    -13.542  0.0000E+00  0.2000E+01
    -13.470  0.0000E+00  0.2000E+01
    -13.398  0.0000E+00  0.2000E+01
    -13.325  0.0000E+00  0.2000E+01
    -13.253  0.0000E+00  0.2000E+01
    -13.181  0.0000E+00  0.2000E+01
    -13.109  0.0000E+00  0.2000E+01
    -13.037  0.0000E+00  0.2000E+01
    -12.964  0.0000E+00  0.2000E+01
    -12.892  0.0000E+00  0.2000E+01
    -12.820  0.0000E+00  0.2000E+01
    -12.748  0.0000E+00  0.2000E+01
    -12.676  0.0000E+00  0.2000E+01
    -12.603  0.0000E+00  0.2000E+01
    -12.531  0.0000E+00  0.2000E+01
    -12.459  0.0000E+00  0.2000E+01
    -12.387  0.0000E+00  0.2000E+01
    -12.315  0.0000E+00  0.2000E+01
    -12.242  0.0000E+00  0.2000E+01
    -12.170  0.0000E+00  0.2000E+01
    -12.098  0.0000E+00  0.2000E+01
    -12.026  0.0000E+00  0.2000E+01
    -11.954  0.0000E+00  0.2000E+01
    -11.881  0.0000E+00  0.2000E+01
    -11.809  0.0000E+00  0.2000E+01
    -11.737  0.0000E+00  0.2000E+01
    -11.665  0.0000E+00  0.2000E+01
    -11.593  0.0000E+00  0.2000E+01
    -11.520  0.0000E+00  0.2000E+01
    -11.448  0.0000E+00  0.2000E+01
    -11.376  0.0000E+00  0.2000E+01
    -11.304  0.0000E+00  0.2000E+01
    -11.232  0.0000E+00  0.2000E+01
    -11.159  0.0000E+00  0.2000E+01
    -11.087  0.0000E+00  0.2000E+01
    -11.015  0.0000E+00  0.2000E+01
    -10.943  0.0000E+00  0.2000E+01
    -10.871  0.0000E+00  0.2000E+01
    -10.798  0.0000E+00  0.2000E+01
    -10.726  0.0000E+00  0.2000E+01
    -10.654  0.0000E+00  0.2000E+01
    -10.582  0.9230E-15  0.2000E+01
    -10.510  0.7802E-13  0.2000E+01
    -10.437  0.3795E-11  0.2000E+01
    -10.365  0.1443E-09  0.2000E+01
    -10.293  0.4273E-08  0.2000E+01
    -10.221  0.9860E-07  0.2000E+01
    -10.149  0.1775E-05  0.2000E+01
    -10.076  0.2495E-04  0.2000E+01
    -10.004  0.2743E-03  0.2000E+01
     -9.932  0.2361E-02  0.2000E+01
     -9.860  0.1595E-01  0.2001E+01
     -9.788  0.8464E-01  0.2007E+01
     -9.715  0.3538E+00  0.2033E+01
     -9.643  0.1168E+01  0.2117E+01
     -9.571  0.3057E+01  0.2337E+01
     -9.499  0.6367E+01  0.2795E+01
     -9.427  0.1060E+02  0.3557E+01
     -9.354  0.1419E+02  0.4577E+01
     -9.282  0.1533E+02  0.5679E+01
     -9.210  0.1342E+02  0.6644E+01
     -9.138  0.9525E+01  0.7329E+01
     -9.066  0.5479E+01  0.7723E+01
     -8.993  0.2544E+01  0.7906E+01
     -8.921  0.9489E+00  0.7974E+01
     -8.849  0.2826E+00  0.7994E+01
     -8.777  0.6685E-01  0.7999E+01
     -8.705  0.1250E-01  0.8000E+01
     -8.632  0.1840E-02  0.8000E+01
     -8.560  0.2127E-03  0.8000E+01
     -8.488  0.1925E-04  0.8000E+01
     -8.416  0.1362E-05  0.8000E+01
     -8.344  0.7525E-07  0.8000E+01
     -8.271  0.3243E-08  0.8000E+01
     -8.199  0.1089E-09  0.8000E+01
     -8.127  0.2850E-11  0.8000E+01
     -8.055  0.5815E-13  0.8000E+01
     -7.983  0.6197E-15  0.8000E+01
     -7.910  0.0000E+00  0.8000E+01
     -7.838  0.0000E+00  0.8000E+01
     -7.766  0.0000E+00  0.8000E+01
     -7.694  0.0000E+00  0.8000E+01
     -7.622  0.0000E+00  0.8000E+01
     -7.549  0.0000E+00  0.8000E+01
     -7.477  0.0000E+00  0.8000E+01
     -7.405  0.0000E+00  0.8000E+01
     -7.333  0.0000E+00  0.8000E+01
     -7.261  0.0000E+00  0.8000E+01
     -7.188  0.0000E+00  0.8000E+01
     -7.116  0.0000E+00  0.8000E+01
     -7.044  0.0000E+00  0.8000E+01
     -6.972  0.0000E+00  0.8000E+01
     -6.900  0.0000E+00  0.8000E+01
     -6.827  0.0000E+00  0.8000E+01
     -6.755  0.0000E+00  0.8000E+01
     -6.683  0.0000E+00  0.8000E+01
     -6.611  0.0000E+00  0.8000E+01
     -6.539  0.0000E+00  0.8000E+01
     -6.466  0.0000E+00  0.8000E+01
     -6.394  0.0000E+00  0.8000E+01
     -6.322  0.0000E+00  0.8000E+01
     -6.250  0.0000E+00  0.8000E+01
     -6.178  0.0000E+00  0.8000E+01
     -6.105  0.0000E+00  0.8000E+01
     -6.033  0.0000E+00  0.8000E+01
     -5.961  0.0000E+00  0.8000E+01
     -5.889  0.0000E+00  0.8000E+01
     -5.817  0.0000E+00  0.8000E+01
     -5.744  0.0000E+00  0.8000E+01
     -5.672  0.0000E+00  0.8000E+01
     -5.600  0.0000E+00  0.8000E+01
     -5.528  0.0000E+00  0.8000E+01
     -5.456  0.0000E+00  0.8000E+01
     -5.383  0.0000E+00  0.8000E+01
     -5.311  0.0000E+00  0.8000E+01
     -5.239  0.0000E+00  0.8000E+01
     -5.167  0.0000E+00  0.8000E+01
     -5.094  0.0000E+00  0.8000E+01
     -5.022  0.0000E+00  0.8000E+01
     -4.950  0.0000E+00  0.8000E+01
     -4.878  0.0000E+00  0.8000E+01
     -4.806  0.0000E+00  0.8000E+01
     -4.733  0.0000E+00  0.8000E+01
     -4.661  0.0000E+00  0.8000E+01
     -4.589  0.0000E+00  0.8000E+01
     -4.517  0.0000E+00  0.8000E+01
     -4.445  0.0000E+00  0.8000E+01
     -4.372  0.0000E+00  0.8000E+01
     -4.300  0.0000E+00  0.8000E+01
     -4.228  0.0000E+00  0.8000E+01
     -4.156  0.0000E+00  0.8000E+01
     -4.084  0.0000E+00  0.8000E+01
     -4.011  0.0000E+00  0.8000E+01
     -3.939  0.0000E+00  0.8000E+01
     -3.867  0.0000E+00  0.8000E+01
     -3.795  0.0000E+00  0.8000E+01
     -3.723  0.0000E+00  0.8000E+01
     -3.650  0.0000E+00  0.8000E+01
     -3.578  0.0000E+00  0.8000E+01
     -3.506  0.0000E+00  0.8000E+01
     -3.434  0.0000E+00  0.8000E+01
     -3.362  0.0000E+00  0.8000E+01
     -3.289  0.0000E+00  0.8000E+01
     -3.217  0.0000E+00  0.8000E+01
     -3.145  0.0000E+00  0.8000E+01
     -3.073  0.0000E+00  0.8000E+01
     -3.001  0.0000E+00  0.8000E+01
     -2.928  0.0000E+00  0.8000E+01
     -2.856  0.0000E+00  0.8000E+01
     -2.784  0.0000E+00  0.8000E+01
     -2.712  0.0000E+00  0.8000E+01
     -2.640  0.0000E+00  0.8000E+01
     -2.567  0.0000E+00  0.8000E+01
     -2.495  0.0000E+00  0.8000E+01
     -2.423  0.0000E+00  0.8000E+01
     -2.351  0.0000E+00  0.8000E+01
     -2.279  0.0000E+00  0.8000E+01
     -2.206  0.0000E+00  0.8000E+01
     -2.134  0.0000E+00  0.8000E+01
     -2.062  0.0000E+00  0.8000E+01
     -1.990  0.0000E+00  0.8000E+01
     -1.918  0.0000E+00  0.8000E+01
     -1.845  0.0000E+00  0.8000E+01
     -1.773  0.0000E+00  0.8000E+01
     -1.701  0.0000E+00  0.8000E+01
     -1.629  0.0000E+00  0.8000E+01
     -1.557  0.0000E+00  0.8000E+01
     -1.484  0.7271E-14  0.8000E+01
     -1.412  0.3994E-12  0.8000E+01
     -1.340  0.1738E-10  0.8000E+01
     -1.268  0.5880E-09  0.8000E+01
     -1.196  0.1546E-07  0.8000E+01
     -1.123  0.3162E-06  0.8000E+01
     -1.051  0.5030E-05  0.8000E+01
     -0.979  0.6224E-04  0.8000E+01
     -0.907  0.5992E-03  0.8000E+01
     -0.835  0.4490E-02  0.8000E+01
     -0.762  0.2618E-01  0.8002E+01
     -0.690  0.1189E+00  0.8011E+01
     -0.618  0.4200E+00  0.8041E+01
     -0.546  0.1156E+01  0.8124E+01
     -0.474  0.2475E+01  0.8302E+01
     -0.401  0.4127E+01  0.8599E+01
     -0.329  0.5356E+01  0.8984E+01
     -0.257  0.5411E+01  0.9373E+01
     -0.185  0.4254E+01  0.9679E+01
     -0.113  0.2602E+01  0.9866E+01
     -0.040  0.1239E+01  0.9955E+01
      0.032  0.4626E+00  0.9988E+01
      0.104  0.1580E+00  0.1000E+02
      0.176  0.1543E+00  0.1001E+02
      0.248  0.4764E+00  0.1005E+02
      0.321  0.1421E+01  0.1015E+02
      0.393  0.3443E+01  0.1039E+02
      0.465  0.6769E+01  0.1088E+02
      0.537  0.1085E+02  0.1166E+02
      0.609  0.1423E+02  0.1268E+02
      0.682  0.1522E+02  0.1378E+02
      0.754  0.1320E+02  0.1473E+02
      0.826  0.9215E+01  0.1539E+02
      0.898  0.5133E+01  0.1576E+02
      0.970  0.2266E+01  0.1592E+02
      1.043  0.7887E+00  0.1598E+02
      1.115  0.2154E+00  0.1600E+02
      1.187  0.4605E-01  0.1600E+02
      1.259  0.7686E-02  0.1600E+02
      1.331  0.1000E-02  0.1600E+02
      1.404  0.1014E-03  0.1600E+02
      1.476  0.7997E-05  0.1600E+02
      1.548  0.4905E-06  0.1600E+02
      1.620  0.2338E-07  0.1600E+02
      1.692  0.8655E-09  0.1600E+02
      1.765  0.2488E-10  0.1600E+02
      1.837  0.5560E-12  0.1600E+02
      1.909  0.8644E-14  0.1600E+02
      1.981  0.0000E+00  0.1600E+02
      2.053  0.0000E+00  0.1600E+02
      2.126  0.0000E+00  0.1600E+02
      2.198  0.0000E+00  0.1600E+02
      2.270  0.0000E+00  0.1600E+02
      2.342  0.0000E+00  0.1600E+02
      2.414  0.0000E+00  0.1600E+02
      2.487  0.0000E+00  0.1600E+02
      2.559  0.0000E+00  0.1600E+02
      2.631  0.0000E+00  0.1600E+02
      2.703  0.0000E+00  0.1600E+02
      2.69574474    -18.96522480  301     -8.27907598      1.00000000
    -18.965  0.0000E+00  0.0000E+00
    -18.893  0.0000E+00  0.0000E+00
    -18.821  0.0000E+00  0.0000E+00
    -18.749  0.0000E+00  0.0000E+00
    -18.676  0.0000E+00  0.0000E+00
    -18.604  0.0000E+00  0.0000E+00
    -18.532  0.0000E+00  0.0000E+00
    -18.460  0.0000E+00  0.0000E+00
    -18.388  0.0000E+00  0.0000E+00
    -18.315  0.0000E+00  0.0000E+00
    -18.243  0.0000E+00  0.0000E+00
    -18.171  0.0000E+00  0.0000E+00
    -18.099  0.1538E-14  0.1110E-15
    -18.027  0.8349E-13  0.6140E-14
    -17.954  0.3602E-11  0.2663E-12
    -17.882  0.1201E-09  0.8937E-11
    -17.810  0.3095E-08  0.2324E-09
    -17.738  0.6169E-07  0.4686E-08
    -17.666  0.9511E-06  0.7336E-07
    -17.593  0.1134E-04  0.8925E-06
    -17.521  0.1047E-03  0.8454E-05
    -17.449  0.7483E-03  0.6248E-04
    -17.377  0.4140E-02  0.3614E-03
    -17.305  0.1773E-01  0.1642E-02
    -17.232  0.5884E-01  0.5890E-02
    -17.160  0.1512E+00  0.1681E-01
    -17.088  0.3011E+00  0.3855E-01
    -17.016  0.4645E+00  0.7209E-01
    -16.944  0.5553E+00  0.1122E+00
    -16.871  0.5144E+00  0.1493E+00
    -16.799  0.3692E+00  0.1760E+00
    -16.727  0.2053E+00  0.1908E+00
    -16.655  0.8846E-01  0.1972E+00
    -16.583  0.2953E-01  0.1993E+00
    -16.510  0.7634E-02  0.1999E+00
    -16.438  0.1528E-02  0.2000E+00
    -16.366  0.2369E-03  0.2000E+00
    -16.294  0.2843E-04  0.2000E+00
    -16.222  0.2641E-05  0.2000E+00
    -16.149  0.1898E-06  0.2000E+00
    -16.077  0.1055E-07  0.2000E+00
    -16.005  0.4537E-09  0.2000E+00
    -15.933  0.1508E-10  0.2000E+00
    -15.860  0.3876E-12  0.2000E+00
    -15.788  0.7996E-14  0.2000E+00
    -15.716  0.0000E+00  0.2000E+00
    -15.644  0.0000E+00  0.2000E+00
    -15.572  0.0000E+00  0.2000E+00
    -15.499  0.0000E+00  0.2000E+00
    -15.427  0.0000E+00  0.2000E+00
    -15.355  0.0000E+00  0.2000E+00
    -15.283  0.0000E+00  0.2000E+00
    -15.211  0.0000E+00  0.2000E+00
    -15.138  0.0000E+00  0.2000E+00
    -15.066  0.0000E+00  0.2000E+00
    -14.994  0.0000E+00  0.2000E+00
    -14.922  0.0000E+00  0.2000E+00
    -14.850  0.0000E+00  0.2000E+00
    -14.777  0.0000E+00  0.2000E+00
    -14.705  0.0000E+00  0.2000E+00
    -14.633  0.0000E+00  0.2000E+00
    -14.561  0.0000E+00  0.2000E+00
    -14.489  0.0000E+00  0.2000E+00
    -14.416  0.0000E+00  0.2000E+00
    -14.344  0.0000E+00  0.2000E+00
    -14.272  0.0000E+00  0.2000E+00
    -14.200  0.0000E+00  0.2000E+00
    -14.128  0.0000E+00  0.2000E+00
    -14.055  0.0000E+00  0.2000E+00
    -13.983  0.0000E+00  0.2000E+00
    -13.911  0.0000E+00  0.2000E+00
    -13.839  0.0000E+00  0.2000E+00
    -13.767  0.0000E+00  0.2000E+00
    -13.694  0.0000E+00  0.2000E+00
    -13.622  0.0000E+00  0.2000E+00
    -13.550  0.0000E+00  0.2000E+00
    -13.478  0.0000E+00  0.2000E+00
    -13.406  0.0000E+00  0.2000E+00
    -13.333  0.0000E+00  0.2000E+00
    -13.261  0.0000E+00  0.2000E+00
    -13.189  0.0000E+00  0.2000E+00
    -13.117  0.0000E+00  0.2000E+00
    -13.045  0.0000E+00  0.2000E+00
    -12.972  0.0000E+00  0.2000E+00
    -12.900  0.0000E+00  0.2000E+00
    -12.828  0.0000E+00  0.2000E+00
    -12.756  0.0000E+00  0.2000E+00
    -12.684  0.0000E+00  0.2000E+00
    -12.611  0.0000E+00  0.2000E+00
    -12.539  0.0000E+00  0.2000E+00
    -12.467  0.0000E+00  0.2000E+00
    -12.395  0.0000E+00  0.2000E+00
    -12.323  0.0000E+00  0.2000E+00
    -12.250  0.0000E+00  0.2000E+00
    -12.178  0.0000E+00  0.2000E+00
    -12.106  0.0000E+00  0.2000E+00
    -12.034  0.0000E+00  0.2000E+00
    -11.962  0.0000E+00  0.2000E+00
    -11.889  0.0000E+00  0.2000E+00
    -11.817  0.0000E+00  0.2000E+00
    -11.745  0.0000E+00  0.2000E+00
    -11.673  0.0000E+00  0.2000E+00
    -11.600  0.0000E+00  0.2000E+00
    -11.528  0.0000E+00  0.2000E+00
    -11.456  0.0000E+00  0.2000E+00
    -11.384  0.0000E+00  0.2000E+00
    -11.312  0.0000E+00  0.2000E+00
    -11.239  0.0000E+00  0.2000E+00
    -11.167  0.0000E+00  0.2000E+00
    -11.095  0.0000E+00  0.2000E+00
    -11.023  0.0000E+00  0.2000E+00
    -10.951  0.0000E+00  0.2000E+00
    -10.878  0.0000E+00  0.2000E+00
    -10.806  0.0000E+00  0.2000E+00
    -10.734  0.0000E+00  0.2000E+00
    -10.662  0.0000E+00  0.2000E+00
    -10.590  0.4613E-15  0.2000E+00
    -10.517  0.2722E-13  0.2000E+00
    -10.445  0.1265E-11  0.2000E+00
    -10.373  0.4540E-10  0.2000E+00
    -10.301  0.1260E-08  0.2000E+00
    -10.229  0.2707E-07  0.2000E+00
    -10.156  0.4499E-06  0.2000E+00
    -10.084  0.5794E-05  0.2000E+00
    -10.012  0.5787E-04  0.2000E+00
     -9.940  0.4488E-03  0.2000E+00
     -9.868  0.2710E-02  0.2002E+00
     -9.795  0.1278E-01  0.2012E+00
     -9.723  0.4738E-01  0.2046E+00
     -9.651  0.1391E+00  0.2146E+00
     -9.579  0.3274E+00  0.2383E+00
     -9.507  0.6265E+00  0.2835E+00
     -9.434  0.9901E+00  0.3550E+00
     -9.362  0.1307E+01  0.4493E+00
     -9.290  0.1445E+01  0.5537E+00
     -9.218  0.1329E+01  0.6496E+00
     -9.146  0.1004E+01  0.7221E+00
     -9.073  0.6145E+00  0.7665E+00
     -9.001  0.3009E+00  0.7882E+00
     -8.929  0.1168E+00  0.7967E+00
     -8.857  0.3574E-01  0.7992E+00
     -8.785  0.8577E-02  0.7999E+00
     -8.712  0.1610E-02  0.8000E+00
     -8.640  0.2358E-03  0.8000E+00
     -8.568  0.2691E-04  0.8000E+00
     -8.496  0.2389E-05  0.8000E+00
     -8.424  0.1649E-06  0.8000E+00
     -8.351  0.8831E-08  0.8000E+00
     -8.279  0.3669E-09  0.8000E+00
     -8.207  0.1182E-10  0.8000E+00
     -8.135  0.2951E-12  0.8000E+00
     -8.063  0.5535E-14  0.8000E+00
     -7.990  0.0000E+00  0.8000E+00
     -7.918  0.0000E+00  0.8000E+00
     -7.846  0.0000E+00  0.8000E+00
     -7.774  0.0000E+00  0.8000E+00
     -7.702  0.0000E+00  0.8000E+00
     -7.629  0.0000E+00  0.8000E+00
     -7.557  0.0000E+00  0.8000E+00
     -7.485  0.0000E+00  0.8000E+00
     -7.413  0.0000E+00  0.8000E+00
     -7.341  0.0000E+00  0.8000E+00
     -7.268  0.0000E+00  0.8000E+00
     -7.196  0.0000E+00  0.8000E+00
     -7.124  0.0000E+00  0.8000E+00
     -7.052  0.0000E+00  0.8000E+00
     -6.979  0.0000E+00  0.8000E+00
     -6.907  0.0000E+00  0.8000E+00
     -6.835  0.0000E+00  0.8000E+00
     -6.763  0.0000E+00  0.8000E+00
     -6.691  0.0000E+00  0.8000E+00
     -6.618  0.0000E+00  0.8000E+00
     -6.546  0.0000E+00  0.8000E+00
     -6.474  0.0000E+00  0.8000E+00
     -6.402  0.0000E+00  0.8000E+00
     -6.330  0.0000E+00  0.8000E+00
     -6.257  0.0000E+00  0.8000E+00
     -6.185  0.0000E+00  0.8000E+00
     -6.113  0.0000E+00  0.8000E+00
     -6.041  0.0000E+00  0.8000E+00
     -5.969  0.0000E+00  0.8000E+00
     -5.896  0.0000E+00  0.8000E+00
     -5.824  0.0000E+00  0.8000E+00
     -5.752  0.0000E+00  0.8000E+00
     -5.680  0.0000E+00  0.8000E+00
     -5.608  0.0000E+00  0.8000E+00
     -5.535  0.0000E+00  0.8000E+00
     -5.463  0.0000E+00  0.8000E+00
     -5.391  0.0000E+00  0.8000E+00
     -5.319  0.0000E+00  0.8000E+00
     -5.247  0.0000E+00  0.8000E+00
     -5.174  0.0000E+00  0.8000E+00
     -5.102  0.0000E+00  0.8000E+00
     -5.030  0.0000E+00  0.8000E+00
     -4.958  0.0000E+00  0.8000E+00
     -4.886  0.0000E+00  0.8000E+00
     -4.813  0.0000E+00  0.8000E+00
     -4.741  0.0000E+00  0.8000E+00
     -4.669  0.0000E+00  0.8000E+00
     -4.597  0.0000E+00  0.8000E+00
     -4.525  0.0000E+00  0.8000E+00
     -4.452  0.0000E+00  0.8000E+00
     -4.380  0.0000E+00  0.8000E+00
     -4.308  0.0000E+00  0.8000E+00
     -4.236  0.0000E+00  0.8000E+00
     -4.164  0.0000E+00  0.8000E+00
     -4.091  0.0000E+00  0.8000E+00
     -4.019  0.0000E+00  0.8000E+00
     -3.947  0.0000E+00  0.8000E+00
     -3.875  0.0000E+00  0.8000E+00
     -3.803  0.0000E+00  0.8000E+00
     -3.730  0.0000E+00  0.8000E+00
     -3.658  0.0000E+00  0.8000E+00
     -3.586  0.0000E+00  0.8000E+00
     -3.514  0.0000E+00  0.8000E+00
     -3.442  0.0000E+00  0.8000E+00
     -3.369  0.0000E+00  0.8000E+00
     -3.297  0.0000E+00  0.8000E+00
     -3.225  0.0000E+00  0.8000E+00
     -3.153  0.0000E+00  0.8000E+00
     -3.081  0.0000E+00  0.8000E+00
     -3.008  0.0000E+00  0.8000E+00
     -2.936  0.0000E+00  0.8000E+00
     -2.864  0.0000E+00  0.8000E+00
     -2.792  0.0000E+00  0.8000E+00
     -2.719  0.0000E+00  0.8000E+00
     -2.647  0.0000E+00  0.8000E+00
     -2.575  0.0000E+00  0.8000E+00
     -2.503  0.0000E+00  0.8000E+00
     -2.431  0.0000E+00  0.8000E+00
     -2.358  0.0000E+00  0.8000E+00
     -2.286  0.0000E+00  0.8000E+00
     -2.214  0.0000E+00  0.8000E+00
     -2.142  0.0000E+00  0.8000E+00
     -2.070  0.0000E+00  0.8000E+00
     -1.997  0.0000E+00  0.8000E+00
     -1.925  0.0000E+00  0.8000E+00
     -1.853  0.0000E+00  0.8000E+00
     -1.781  0.0000E+00  0.8000E+00
     -1.709  0.0000E+00  0.8000E+00
     -1.636  0.0000E+00  0.8000E+00
     -1.564  0.0000E+00  0.8000E+00
     -1.492  0.3844E-16  0.8000E+00
     -1.420  0.4844E-14  0.8000E+00
     -1.348  0.2477E-12  0.8000E+00
     -1.275  0.9926E-11  0.8000E+00
     -1.203  0.3075E-09  0.8000E+00
     -1.131  0.7368E-08  0.8000E+00
     -1.059  0.1366E-06  0.8000E+00
     -0.987  0.1958E-05  0.8000E+00
     -0.914  0.2172E-04  0.8000E+00
     -0.842  0.1865E-03  0.8000E+00
     -0.770  0.1240E-02  0.8001E+00
     -0.698  0.6383E-02  0.8006E+00
     -0.626  0.2545E-01  0.8024E+00
     -0.553  0.7860E-01  0.8081E+00
     -0.481  0.1881E+00  0.8217E+00
     -0.409  0.3486E+00  0.8468E+00
     -0.337  0.5008E+00  0.8830E+00
     -0.265  0.5576E+00  0.9233E+00
     -0.192  0.4810E+00  0.9580E+00
     -0.120  0.3216E+00  0.9812E+00
     -0.048  0.1666E+00  0.9932E+00
      0.024  0.6721E-01  0.9981E+00
      0.096  0.2291E-01  0.9997E+00
      0.169  0.1543E-01  0.1001E+01
      0.241  0.4151E-01  0.1004E+01
      0.313  0.1257E+00  0.1013E+01
      0.385  0.3120E+00  0.1035E+01
      0.457  0.6276E+00  0.1081E+01
      0.530  0.1030E+01  0.1155E+01
      0.602  0.1385E+01  0.1255E+01
      0.674  0.1521E+01  0.1365E+01
      0.746  0.1356E+01  0.1463E+01
      0.818  0.9721E+00  0.1533E+01
      0.891  0.5559E+00  0.1573E+01
      0.963  0.2514E+00  0.1591E+01
      1.035  0.8944E-01  0.1598E+01
      1.107  0.2491E-01  0.1600E+01
      1.179  0.5415E-02  0.1600E+01
      1.252  0.9169E-03  0.1600E+01
      1.324  0.1208E-03  0.1600E+01
      1.396  0.1236E-04  0.1600E+01
      1.468  0.9814E-06  0.1600E+01
      1.540  0.6048E-07  0.1600E+01
      1.613  0.2891E-08  0.1600E+01
      1.685  0.1071E-09  0.1600E+01
      1.757  0.3074E-11  0.1600E+01
      1.829  0.6835E-13  0.1600E+01
      1.902  0.1076E-14  0.1600E+01
      1.974  0.0000E+00  0.1600E+01
      2.046  0.0000E+00  0.1600E+01
      2.118  0.0000E+00  0.1600E+01
      2.190  0.0000E+00  0.1600E+01
      2.263  0.0000E+00  0.1600E+01
      2.335  0.0000E+00  0.1600E+01
      2.407  0.0000E+00  0.1600E+01
      2.479  0.0000E+00  0.1600E+01
      2.551  0.0000E+00  0.1600E+01
      2.624  0.0000E+00  0.1600E+01
      2.696  0.0000E+00  0.1600E+01
