 running on   16 total cores
 distrk:  each k-point on   16 cores,    1 groups
 distr:  one band on    4 cores,    4 groups
 using from now: INCAR     
 vasp.5.4.4.18Apr17-6-g9f103f2a35 (build Nov 25 2021 15:25:00) complex          
  
 POSCAR found type information on POSCAR  H  C 
 POSCAR found :  2 types and       5 ions
 scaLAPACK will be used
 LDA part: xc-table for Pade appr. of Perdew
 POSCAR found type information on POSCAR  H  C 
 POSCAR found :  2 types and       5 ions
 generate k-points for:    2    2    2
 POSCAR, INCAR and KPOINTS ok, starting setup
 FFT: planning ...
 WAVECAR not read
 prediction of wavefunctions initialized - no I/O
 entering main loop
       N       E                     dE             d eps       ncg     rms          rms(c)
DAV:   1     0.129908523798E+02    0.12991E+02   -0.20306E+03    96   0.425E+02
DAV:   2    -0.238451281745E+02   -0.36836E+02   -0.36836E+02    80   0.113E+02
DAV:   3    -0.272476698543E+02   -0.34025E+01   -0.34025E+01    64   0.371E+01
DAV:   4    -0.273841208743E+02   -0.13645E+00   -0.13645E+00   128   0.841E+00
DAV:   5    -0.273841663100E+02   -0.45436E-04   -0.45436E-04    96   0.161E-01    0.853E+00
RMM:   6    -0.246134882738E+02    0.27707E+01   -0.50876E+00    64   0.137E+01    0.421E+00
RMM:   7    -0.241442248375E+02    0.46926E+00   -0.11039E+00    64   0.606E+00    0.225E+00
RMM:   8    -0.239996318132E+02    0.14459E+00   -0.16295E-01    64   0.286E+00    0.228E-01
RMM:   9    -0.239940794933E+02    0.55523E-02   -0.10798E-02    64   0.688E-01    0.193E-01
RMM:  10    -0.239876666114E+02    0.64129E-02   -0.24148E-02    64   0.843E-01    0.270E-01
RMM:  11    -0.239885844716E+02   -0.91786E-03   -0.88339E-03    64   0.580E-01    0.955E-02
RMM:  12    -0.239977627647E+02   -0.91783E-02   -0.28634E-03    64   0.328E-01    0.117E-01
RMM:  13    -0.239983804043E+02   -0.61764E-03   -0.10544E-03    64   0.178E-01    0.411E-02
RMM:  14    -0.240012378542E+02   -0.28574E-02   -0.11027E-03    64   0.203E-01    0.247E-02
RMM:  15    -0.240014941275E+02   -0.25627E-03   -0.49442E-05    64   0.410E-02    0.204E-02
RMM:  16    -0.240017156598E+02   -0.22153E-03   -0.13368E-04    64   0.662E-02    0.689E-03
RMM:  17    -0.240017521130E+02   -0.36453E-04   -0.17876E-05    64   0.245E-02    0.267E-03
RMM:  18    -0.240017670792E+02   -0.14966E-04   -0.10205E-06    48   0.638E-03    0.698E-04
RMM:  19    -0.240017709056E+02   -0.38264E-05   -0.14063E-06    48   0.720E-03    0.146E-03
RMM:  20    -0.240017717858E+02   -0.88016E-06   -0.28415E-07    48   0.338E-03
    1 T=     1. E= -.24001294E+02 F= -.24001772E+02 E0= -.24001772E+02  EK= 0.47754E-03 SP= 0.00E+00 SK= 0.00E+00
 bond charge predicted
       N       E                     dE             d eps       ncg     rms          rms(c)
DAV:   1    -0.240054846833E+02   -0.37138E-02   -0.40171E-03    96   0.564E-01    0.308E-02
RMM:   2    -0.240054714506E+02    0.13233E-04   -0.93551E-05    64   0.748E-02    0.155E-02
RMM:   3    -0.240054703264E+02    0.11242E-05   -0.23176E-05    64   0.328E-02    0.527E-03
RMM:   4    -0.240054703744E+02   -0.48036E-07   -0.81235E-07    48   0.797E-03
    2 T=     8. E= -.24001358E+02 F= -.24005470E+02 E0= -.24005470E+02  EK= 0.41128E-02 SP= 0.00E+00 SK= 0.00E+00
 bond charge predicted
 prediction of wavefunctions
       N       E                     dE             d eps       ncg     rms          rms(c)
DAV:   1    -0.240118657540E+02   -0.63954E-02   -0.33261E-03    64   0.535E-01    0.124E-02
RMM:   2    -0.240118768569E+02   -0.11103E-04   -0.11356E-04    64   0.931E-02    0.424E-03
RMM:   3    -0.240118775563E+02   -0.69943E-06   -0.34413E-06    56   0.160E-02    0.460E-03
RMM:   4    -0.240118778864E+02   -0.33012E-06   -0.54805E-07    48   0.679E-03
    3 T=    20. E= -.24001468E+02 F= -.24011878E+02 E0= -.24011878E+02  EK= 0.10410E-01 SP= 0.00E+00 SK= 0.00E+00
 bond charge predicted
 prediction of wavefunctions
       N       E                     dE             d eps       ncg     rms          rms(c)
DAV:   1    -0.240192294940E+02   -0.73519E-02   -0.10553E-03    64   0.268E-01    0.490E-03
RMM:   2    -0.240192328313E+02   -0.33373E-05   -0.27986E-05    64   0.430E-02    0.509E-03
RMM:   3    -0.240192328483E+02   -0.17055E-07   -0.10223E-06    48   0.959E-03    0.446E-03
RMM:   4    -0.240192338094E+02   -0.96108E-06   -0.39040E-06    60   0.118E-02
    4 T=    34. E= -.24001607E+02 F= -.24019234E+02 E0= -.24019234E+02  EK= 0.17627E-01 SP= 0.00E+00 SK= 0.00E+00
 bond charge predicted
 prediction of wavefunctions
       N       E                     dE             d eps       ncg     rms          rms(c)
DAV:   1    -0.240253863258E+02   -0.61535E-02   -0.16166E-03    72   0.332E-01    0.438E-03
RMM:   2    -0.240253898372E+02   -0.35114E-05   -0.12569E-05    64   0.304E-02    0.281E-03
RMM:   3    -0.240253928306E+02   -0.29934E-05   -0.15887E-06    50   0.854E-03    0.919E-04
RMM:   4    -0.240253942657E+02   -0.14351E-05   -0.21377E-07    48   0.426E-03    0.653E-04
RMM:   5    -0.240253976931E+02   -0.34273E-05   -0.31961E-07    48   0.322E-03    0.389E-04
RMM:   6    -0.240253981561E+02   -0.46305E-06   -0.15099E-08    35   0.155E-03
    5 T=    46. E= -.24001735E+02 F= -.24025398E+02 E0= -.24025398E+02  EK= 0.23663E-01 SP= 0.00E+00 SK= 0.00E+00
 bond charge predicted
 prediction of wavefunctions
       N       E                     dE             d eps       ncg     rms          rms(c)
DAV:   1    -0.240284279972E+02   -0.30303E-02   -0.18228E-03    88   0.366E-01    0.601E-03
RMM:   2    -0.240284320962E+02   -0.40989E-05   -0.14134E-05    64   0.375E-02    0.313E-03
RMM:   3    -0.240284362022E+02   -0.41060E-05   -0.26754E-06    58   0.112E-02    0.877E-04
RMM:   4    -0.240284376776E+02   -0.14754E-05   -0.15432E-07    48   0.377E-03    0.602E-04
RMM:   5    -0.240284411158E+02   -0.34383E-05   -0.22388E-07    48   0.304E-03    0.540E-04
RMM:   6    -0.240284418059E+02   -0.69008E-06   -0.24913E-08    38   0.165E-03
    6 T=    51. E= -.24001814E+02 F= -.24028442E+02 E0= -.24028442E+02  EK= 0.26628E-01 SP= 0.00E+00 SK= 0.00E+00
 bond charge predicted
 prediction of wavefunctions
       N       E                     dE             d eps       ncg     rms          rms(c)
DAV:   1    -0.240272510532E+02    0.11901E-02   -0.19060E-03    64   0.374E-01    0.615E-03
RMM:   2    -0.240272552271E+02   -0.41739E-05   -0.23997E-05    64   0.471E-02    0.357E-03
RMM:   3    -0.240272586456E+02   -0.34185E-05   -0.26562E-06    56   0.116E-02    0.105E-03
RMM:   4    -0.240272603778E+02   -0.17322E-05   -0.22383E-07    48   0.448E-03    0.647E-04
RMM:   5    -0.240272629446E+02   -0.25668E-05   -0.63896E-08    45   0.224E-03    0.262E-04
RMM:   6    -0.240272644066E+02   -0.14620E-05   -0.62973E-08    40   0.189E-03    0.181E-04
RMM:   7    -0.240272654334E+02   -0.10268E-05   -0.84371E-08    44   0.201E-03    0.338E-04
RMM:   8    -0.240272661720E+02   -0.73862E-06    0.00000E+00    32   0.127E-03
    7 T=    49. E= -.24001811E+02 F= -.24027266E+02 E0= -.24027266E+02  EK= 0.25455E-01 SP= 0.00E+00 SK= 0.00E+00
 bond charge predicted
 prediction of wavefunctions
       N       E                     dE             d eps       ncg     rms          rms(c)
DAV:   1    -0.240221031926E+02    0.51622E-02   -0.15677E-03    96   0.340E-01    0.589E-03
RMM:   2    -0.240221047049E+02   -0.15123E-05   -0.21309E-05    64   0.520E-02    0.293E-03
RMM:   3    -0.240221052300E+02   -0.52509E-06   -0.13102E-06    48   0.946E-03    0.127E-03
RMM:   4    -0.240221057767E+02   -0.54675E-06   -0.44689E-07    48   0.606E-03
    8 T=    39. E= -.24001711E+02 F= -.24022106E+02 E0= -.24022106E+02  EK= 0.20395E-01 SP= 0.00E+00 SK= 0.00E+00
 bond charge predicted
 prediction of wavefunctions
       N       E                     dE             d eps       ncg     rms          rms(c)
DAV:   1    -0.240146515297E+02    0.74537E-02   -0.11319E-03    80   0.285E-01    0.255E-03
RMM:   2    -0.240146537957E+02   -0.22660E-05   -0.19757E-05    64   0.488E-02    0.293E-03
RMM:   3    -0.240146538216E+02   -0.25902E-07   -0.37097E-07    47   0.530E-03    0.258E-03
RMM:   4    -0.240146546644E+02   -0.84280E-06   -0.15264E-07    48   0.379E-03
    9 T=    25. E= -.24001545E+02 F= -.24014655E+02 E0= -.24014655E+02  EK= 0.13110E-01 SP= 0.00E+00 SK= 0.00E+00
 bond charge predicted
 prediction of wavefunctions
       N       E                     dE             d eps       ncg     rms          rms(c)
DAV:   1    -0.240075954748E+02    0.70583E-02   -0.56365E-04    80   0.212E-01    0.286E-03
RMM:   2    -0.240075970718E+02   -0.15970E-05   -0.14033E-05    60   0.399E-02    0.161E-03
RMM:   3    -0.240075972628E+02   -0.19095E-06   -0.27437E-07    47   0.511E-03    0.123E-03
RMM:   4    -0.240075976861E+02   -0.42336E-06   -0.15907E-07    48   0.359E-03
   10 T=    12. E= -.24001374E+02 F= -.24007598E+02 E0= -.24007598E+02  EK= 0.62238E-02 SP= 0.00E+00 SK= 0.00E+00
 bond charge predicted
 prediction of wavefunctions
 wavefunctions rotated
