 vasp.5.4.4.18Apr17-6-g9f103f2a35 (build Nov 25 2021 15:25:00) complex          
  
 executed on             LinuxIFC date 2022.02.21  10:18:09
 running on   16 total cores
 distrk:  each k-point on   16 cores,    1 groups
 distr:  one band on NCORES_PER_BAND=   4 cores,    4 groups


--------------------------------------------------------------------------------------------------------


 INCAR:
 POTCAR:    PAW_PBE H 15Jun2001                   
 POTCAR:    PAW_PBE C 08Apr2002                   
 POTCAR:    PAW_PBE H 15Jun2001                   
   VRHFIN =H: ultrasoft test                                                    
   LEXCH  = PE                                                                  
   EATOM  =    12.4884 eV,    0.9179 Ry                                         
                                                                                
   TITEL  = PAW_PBE H 15Jun2001                                                 
   LULTRA =        F    use ultrasoft PP ?                                      
   IUNSCR =        0    unscreen: 0-lin 1-nonlin 2-no                           
   RPACOR =    0.000    partial core radius                                     
   POMASS =    1.000; ZVAL   =    1.000    mass and valenz                      
   RCORE  =    1.100    outmost cutoff radius                                   
   RWIGS  =    0.700; RWIGS  =    0.370    wigner-seitz radius (au A)           
   ENMAX  =  250.000; ENMIN  =  200.000 eV                                      
   RCLOC  =    0.701    cutoff for local pot                                    
   LCOR   =        T    correct aug charges                                     
   LPAW   =        T    paw PP                                                  
   EAUG   =  400.000                                                            
   RMAX   =    1.123    core radius for proj-oper                               
   RAUG   =    1.200    factor for augmentation sphere                          
   RDEP   =    1.112    radius for radial grids                                 
   RDEPT  =    0.926    core radius for aug-charge                              
                                                                                
   Atomic configuration                                                         
    2 entries                                                                   
     n  l   j            E        occ.                                          
     1  0  0.50        -6.4927   1.0000                                         
     2  1  0.50        -3.4015   0.0000                                         
   Description                                                                  
     l       E           TYP  RCUT    TYP  RCUT                                 
     0     -6.4927494     23  1.100                                             
     0      6.8029130     23  1.100                                             
     1     -4.0817478     23  1.100                                             
  local pseudopotential read in
  atomic valenz-charges read in
  non local Contribution for L=           0  read in
    real space projection operators read in
  non local Contribution for L=           0  read in
    real space projection operators read in
  non local Contribution for L=           1  read in
    real space projection operators read in
    PAW grid and wavefunctions read in
 
   number of l-projection  operators is LMAX  =           3
   number of lm-projection operators is LMMAX =           5
 
 POTCAR:    PAW_PBE C 08Apr2002                   
   VRHFIN =C: s2p2                                                              
   LEXCH  = PE                                                                  
   EATOM  =   147.1560 eV,   10.8157 Ry                                         
                                                                                
   TITEL  = PAW_PBE C 08Apr2002                                                 
   LULTRA =        F    use ultrasoft PP ?                                      
   IUNSCR =        1    unscreen: 0-lin 1-nonlin 2-no                           
   RPACOR =    1.200    partial core radius                                     
   POMASS =   12.011; ZVAL   =    4.000    mass and valenz                      
   RCORE  =    1.500    outmost cutoff radius                                   
   RWIGS  =    1.630; RWIGS  =    0.863    wigner-seitz radius (au A)           
   ENMAX  =  400.000; ENMIN  =  300.000 eV                                      
   ICORE  =        2    local potential                                         
   LCOR   =        T    correct aug charges                                     
   LPAW   =        T    paw PP                                                  
   EAUG   =  644.873                                                            
   DEXC   =    0.000                                                            
   RMAX   =    1.529    core radius for proj-oper                               
   RAUG   =    1.300    factor for augmentation sphere                          
   RDEP   =    1.501    radius for radial grids                                 
   RDEPT  =    1.300    core radius for aug-charge                              
                                                                                
   Atomic configuration                                                         
    4 entries                                                                   
     n  l   j            E        occ.                                          
     1  0  0.50      -273.3789   2.0000                                         
     2  0  0.50       -13.7508   2.0000                                         
     2  1  0.50        -5.2854   2.0000                                         
     3  2  1.50        -5.4423   0.0000                                         
   Description                                                                  
     l       E           TYP  RCUT    TYP  RCUT                                 
     0    -13.7508458     23  1.200                                             
     0     -8.2022199     23  1.200                                             
     1     -5.2854383     23  1.500                                             
     1     34.0145650     23  1.500                                             
     2     -5.4423304      7  1.500                                             
  local pseudopotential read in
  partial core-charges read in
  partial kinetic energy density read in
  atomic valenz-charges read in
  non local Contribution for L=           0  read in
    real space projection operators read in
  non local Contribution for L=           0  read in
    real space projection operators read in
  non local Contribution for L=           1  read in
    real space projection operators read in
  non local Contribution for L=           1  read in
    real space projection operators read in
    PAW grid and wavefunctions read in
 
   number of l-projection  operators is LMAX  =           4
   number of lm-projection operators is LMMAX =           8
 
  PAW_PBE H 15Jun2001                   :
 energy of atom  1       EATOM=  -12.4884
 kinetic energy error for atom=    0.0098 (will be added to EATOM!!)
  PAW_PBE C 08Apr2002                   :
 energy of atom  2       EATOM= -147.1560
 kinetic energy error for atom=    0.0288 (will be added to EATOM!!)
 
 
 POSCAR:  H  C                                   
  positions in cartesian coordinates
  No initial velocities read in
 exchange correlation table for  LEXCH =        8
   RHO(1)=    0.500       N(1)  =     2000
   RHO(2)=  100.500       N(2)  =     4000

 VTST: version 3.2, (02/03/18)

 CHAIN: initializing optimizer
 
 OPT: Using VASP Dynamics algorithm
 CHAIN: Read ICHAIN            0
 
 POSCAR:  H  C                                   
  positions in cartesian coordinates
  No initial velocities read in
 


--------------------------------------------------------------------------------------------------------


 ion  position               nearest neighbor table
   1  0.538  0.407  0.361-   5 1.09
   2  0.394  0.480  0.438-   5 1.11
   3  0.552  0.566  0.443-   5 1.14
   4  0.529  0.416  0.539-   5 1.09
   5  0.503  0.467  0.445-   1 1.09   4 1.09   2 1.11   3 1.14
 

IMPORTANT INFORMATION: All symmetrisations will be switched off!
NOSYMM: (Re-)initialisation of all symmetry stuff for point group C_1.

 
 

Automatic generation of k-mesh.
 generate k-points for:    2    2    2
Space group operators:
 irot       det(A)        alpha          n_x          n_y          n_z        tau_x        tau_y        tau_z
    1     1.000000     0.000000     1.000000     0.000000     0.000000     0.000000     0.000000     0.000000
 
 Subroutine IBZKPT returns following result:
 ===========================================
 
 Found      4 irreducible k-points:
 
 Following reciprocal coordinates:
            Coordinates               Weight
  0.250000  0.250000  0.250000      2.000000
 -0.250000  0.250000  0.250000      2.000000
  0.250000 -0.250000  0.250000      2.000000
 -0.250000 -0.250000  0.250000      2.000000
 
 Following cartesian coordinates:
            Coordinates               Weight
  0.024647  0.023837  0.024805      2.000000
 -0.024647  0.024936  0.024776      2.000000
  0.024647 -0.024936  0.025589      2.000000
 -0.024647 -0.023837  0.025560      2.000000
 


--------------------------------------------------------------------------------------------------------




 Dimension of arrays:
   k-points           NKPTS =      4   k-points in BZ     NKDIM =      4   number of bands    NBANDS=      8
   number of dos      NEDOS =    301   number of ions     NIONS =      5
   non local maximal  LDIM  =      4   non local SUM 2l+1 LMDIM =      8
   total plane-waves  NPLWV = 343000
   max r-space proj   IRMAX =      1   max aug-charges    IRDMAX=   4120
   dimension x,y,z NGX =    70 NGY =   70 NGZ =   70
   dimension x,y,z NGXF=   140 NGYF=  140 NGZF=  140
   support grid    NGXF=   140 NGYF=  140 NGZF=  140
   ions per type =               4   1
   NGX,Y,Z   is equivalent  to a cutoff of  11.47, 11.35, 11.72 a.u.
   NGXF,Y,Z  is equivalent  to a cutoff of  22.95, 22.70, 23.44 a.u.

 SYSTEM =  unknown system                          
 POSCAR =   H  C                                   

 Startparameter for this run:
   NWRITE =      2    write-flag & timer
   PREC   = a         normal or accurate (medium, high low for compatibility)
   ISTART =      0    job   : 0-new  1-cont  2-samecut
   ICHARG =      2    charge: 1-file 2-atom 10-const
   ISPIN  =      1    spin polarized calculation?
   LNONCOLLINEAR =      F non collinear calculations
   LSORBIT =      F    spin-orbit coupling
   INIWAV =      1    electr: 0-lowe 1-rand  2-diag
   LASPH  =      F    aspherical Exc in radial PAW
   METAGGA=      F    non-selfconsistent MetaGGA calc.

 Electronic Relaxation 1
   ENCUT  =  400.0 eV  29.40 Ry    5.42 a.u.  16.54 16.72 16.19*2*pi/ulx,y,z
   ENINI  =  400.0     initial cutoff
   ENAUG  =  644.9 eV  augmentation charge cutoff
   NELM   =    120;   NELMIN=  4; NELMDL= -5     # of ELM steps 
   EDIFF  = 0.1E-05   stopping-criterion for ELM
   LREAL  =      F    real-space projection
   NLSPLINE    = F    spline interpolate recip. space projectors
   LCOMPAT=      F    compatible to vasp.4.4
   GGA_COMPAT  = T    GGA compatible to vasp.4.4-vasp.4.6
   LMAXPAW     = -100 max onsite density
   LMAXMIX     =    2 max onsite mixed and CHGCAR
   VOSKOWN=      0    Vosko Wilk Nusair interpolation
   ROPT   =    0.00000   0.00000
 Ionic relaxation
   EDIFFG = 0.1E-04   stopping-criterion for IOM
   NSW    =     10    number of steps for IOM
   NBLOCK =      1;   KBLOCK =     10    inner block; outer block 
   IBRION =      0    ionic relax: 0-MD 1-quasi-New 2-CG
   NFREE  =      0    steps in history (QN), initial steepest desc. (CG)
   ISIF   =      2    stress and relaxation
   IWAVPR =     12    prediction:  0-non 1-charg 2-wave 3-comb
   ISYM   =      0    0-nonsym 1-usesym 2-fastsym
   LCORR  =      T    Harris-Foulkes like correction to forces

   POTIM  = 0.5000    time-step for ionic-motion
   TEIN   =    0.0    initial temperature
   TEBEG  =    0.0;   TEEND  =   0.0 temperature during run
   SMASS  =  -3.00    Nose mass-parameter (am)
   estimated Nose-frequenzy (Omega)   =  0.10E-29 period in steps =****** mass=  -0.235E-26a.u.
   SCALEE = 1.0000    scale energy and forces
   NPACO  =    256;   APACO  = 16.0  distance and # of slots for P.C.
   PSTRESS=    0.0 pullay stress

  Mass of Ions in am
   POMASS =   1.00 12.01
  Ionic Valenz
   ZVAL   =   1.00  4.00
  Atomic Wigner-Seitz radii
   RWIGS  =  -1.00 -1.00
  virtual crystal weights 
   VCA    =   1.00  1.00
   NELECT =       8.0000    total number of electrons
   NUPDOWN=      -1.0000    fix difference up-down

 DOS related values:
   EMIN   =  10.00;   EMAX   =-10.00  energy-range for DOS
   EFERMI =   0.00
   ISMEAR =     0;   SIGMA  =   0.20  broadening in eV -4-tet -1-fermi 0-gaus

 Electronic relaxation 2 (details)
   IALGO  =     68    algorithm
   LDIAG  =      T    sub-space diagonalisation (order eigenvalues)
   LSUBROT=      F    optimize rotation matrix (better conditioning)
   TURBO    =      0    0=normal 1=particle mesh
   IRESTART =      0    0=no restart 2=restart with 2 vectors
   NREBOOT  =      0    no. of reboots
   NMIN     =      0    reboot dimension
   EREF     =   0.00    reference energy to select bands
   IMIX   =      4    mixing-type and parameters
     AMIX     =   0.40;   BMIX     =  1.00
     AMIX_MAG =   1.60;   BMIX_MAG =  1.00
     AMIN     =   0.10
     WC   =   100.;   INIMIX=   1;  MIXPRE=   1;  MAXMIX= -45

 Intra band minimization:
   WEIMIN = 0.0010     energy-eigenvalue tresh-hold
   EBREAK =  0.31E-07  absolut break condition
   DEPER  =   0.30     relativ break condition  

   TIME   =   0.40     timestep for ELM

  volume/ion in A,a.u.               =     206.46      1393.29
  Fermi-wavevector in a.u.,A,eV,Ry     =   0.323967  0.612208  1.427991  0.104954
  Thomas-Fermi vector in A             =   1.213680
 
 Write flags
   LWAVE        =      F    write WAVECAR
   LDOWNSAMPLE  =      F    k-point downsampling of WAVECAR
   LCHARG       =      F    write CHGCAR
   LVTOT        =      F    write LOCPOT, total local potential
   LVHAR        =      F    write LOCPOT, Hartree potential only
   LELF         =      F    write electronic localiz. function (ELF)
   LORBIT       =      0    0 simple, 1 ext, 2 COOP (PROOUT), +10 PAW based schemes


 Dipole corrections
   LMONO  =      F    monopole corrections only (constant potential shift)
   LDIPOL =      F    correct potential (dipole corrections)
   IDIPOL =      0    1-x, 2-y, 3-z, 4-all directions 
   EPSILON=  1.0000000 bulk dielectric constant

 Exchange correlation treatment:
   GGA     =    --    GGA type
   LEXCH   =     8    internal setting for exchange type
   VOSKOWN=      0    Vosko Wilk Nusair interpolation
   LHFCALC =     F    Hartree Fock is set to
   LHFONE  =     F    Hartree Fock one center treatment
   AEXX    =    0.0000 exact exchange contribution

 Linear response parameters
   LEPSILON=     F    determine dielectric tensor
   LRPA    =     F    only Hartree local field effects (RPA)
   LNABLA  =     F    use nabla operator in PAW spheres
   LVEL    =     F    velocity operator in full k-point grid
   LINTERFAST=   F  fast interpolation
   KINTER  =     0    interpolate to denser k-point grid
   CSHIFT  =0.1000    complex shift for real part using Kramers Kronig
   OMEGAMAX=  -1.0    maximum frequency
   DEG_THRESHOLD= 0.2000000E-02 threshold for treating states as degnerate
   RTIME   =   -0.100 relaxation time in fs
  (WPLASMAI=    0.000 imaginary part of plasma frequency in eV, 0.658/RTIME)
   DFIELD  = 0.0000000 0.0000000 0.0000000 field for delta impulse in time
 
 Orbital magnetization related:
   ORBITALMAG=     F  switch on orbital magnetization
   LCHIMAG   =     F  perturbation theory with respect to B field
   DQ        =  0.001000  dq finite difference perturbation B field
   LLRAUG    =     F  two centre corrections for induced B field



--------------------------------------------------------------------------------------------------------


 molecular dynamics for ions
   using a microcanonical ensemble
 charge density and potential will be updated during run
 non-spin polarized calculation
 RMM-DIIS sequential band-by-band and
  variant of blocked Davidson during initial phase
 perform sub-space diagonalisation
    before iterative eigenvector-optimisation
 modified Broyden-mixing scheme, WC =      100.0
 initial mixing is a Kerker type mixing with AMIX =  0.4000 and BMIX =      1.0000
 Hartree-type preconditioning will be used
 using additional bands            4
 reciprocal scheme for non local part
 use partial core corrections
 calculate Harris-corrections to forces 
   (improved forces if not selfconsistent)
 use gradient corrections 
 use of overlap-Matrix (Vanderbilt PP)
 Gauss-broadening in eV      SIGMA  =   0.20


--------------------------------------------------------------------------------------------------------


  energy-cutoff  :      400.00
  volume of cell :     1032.32
      direct lattice vectors                 reciprocal lattice vectors
    10.143409265  0.000000000  0.000000000     0.098586183 -0.002198259  0.000057505
     0.228585141 10.251447252  0.000000000     0.000000000  0.097547202 -0.001567518
    -0.002233599  0.159529885  9.927601472     0.000000000  0.000000000  0.100729265

  length of vectors
    10.143409265 10.253995413  9.928883409     0.098610705  0.097559796  0.100729265


 
 k-points in units of 2pi/SCALE and weight: read from INCAR                         
   0.02464655  0.02383724  0.02480481       0.250
  -0.02464655  0.02493637  0.02477606       0.250
   0.02464655 -0.02493637  0.02558857       0.250
  -0.02464655 -0.02383724  0.02555982       0.250
 
 k-points in reciprocal lattice and weights: read from INCAR                         
   0.25000000  0.25000000  0.25000000       0.250
  -0.25000000  0.25000000  0.25000000       0.250
   0.25000000 -0.25000000  0.25000000       0.250
  -0.25000000 -0.25000000  0.25000000       0.250
 
 position of ions in fractional coordinates (direct lattice) 
   0.53769456  0.40716556  0.36127033
   0.39446268  0.48040982  0.43829110
   0.55168656  0.56559915  0.44285466
   0.52905373  0.41634018  0.53941470
   0.50290420  0.46687026  0.44493739
 
 position of ions in cartesian coordinates  (Angst):
   5.54632102  4.23166964  3.58654785
   4.11003203  4.99481649  4.35117935
   5.72428100  5.86885843  4.39648454
   5.46037289  4.35414214  5.35509418
   5.20688889  4.85707666  4.41716105
 


--------------------------------------------------------------------------------------------------------


 k-point  1 :   0.2500 0.2500 0.2500  plane waves:   18739
 k-point  2 :  -0.2500 0.2500 0.2500  plane waves:   18750
 k-point  3 :   0.2500-0.2500 0.2500  plane waves:   18764
 k-point  4 :  -0.2500-0.2500 0.2500  plane waves:   18765

 maximum and minimum number of plane-waves per node :      4704     4665

 maximum number of plane-waves:     18765
 maximum index in each direction: 
   IXMAX=   16   IYMAX=   16   IZMAX=   15
   IXMIN=  -16   IYMIN=  -16   IZMIN=  -16


 parallel 3D FFT for wavefunctions:
    minimum data exchange during FFTs selected (reduces bandwidth)
 parallel 3D FFT for charge:
    minimum data exchange during FFTs selected (reduces bandwidth)


 total amount of memory used by VASP MPI-rank0    55492. kBytes
=======================================================================

   base      :      30000. kBytes
   nonl-proj :       2780. kBytes
   fftplans  :       8576. kBytes
   grid      :      13527. kBytes
   one-center:          6. kBytes
   wavefun   :        603. kBytes
 
     INWAV:  cpu time    0.0001: real time    0.0000
 Broyden mixing: mesh for mixing (old mesh)
   NGX = 33   NGY = 33   NGZ = 33
  (NGX  =140   NGY  =140   NGZ  =140)
  gives a total of  35937 points

 initial charge density was supplied:
 charge density of overlapping atoms calculated
 number of electron       8.0000000 magnetization 
 keeping initial charge density in first step


--------------------------------------------------------------------------------------------------------


 Maximum index for augmentation-charges          169 (set IRDMAX)


--------------------------------------------------------------------------------------------------------


 First call to EWALD:  gamma=   0.175
 Maximum number of real-space cells 3x 3x 3
 Maximum number of reciprocal cells 3x 3x 3

    FEWALD:  cpu time    0.0023: real time    0.0023


--------------------------------------- Iteration      1(   1)  ---------------------------------------


    POTLOK:  cpu time    0.1699: real time    0.1815
    SETDIJ:  cpu time    0.0047: real time    0.0059
     EDDAV:  cpu time    0.2113: real time    0.2301
       DOS:  cpu time    0.0011: real time    0.0011
    --------------------------------------------
      LOOP:  cpu time    0.3870: real time    0.4186

 eigenvalue-minimisations  :    96
 total energy-change (2. order) : 0.1299085E+02  (-0.2030634E+03)
 number of electron       8.0000000 magnetization 
 augmentation part        8.0000000 magnetization 

 Free energy of the ion-electron system (eV)
  ---------------------------------------------------
  alpha Z        PSCENC =         0.23466685
  Ewald energy   TEWEN  =       127.57568154
  -Hartree energ DENC   =      -243.97737931
  -exchange      EXHF   =         0.00000000
  -V(xc)+E(xc)   XCENC  =        21.94896820
  PAW double counting   =       117.05815612     -117.66307307
  entropy T*S    EENTRO =        -0.00000000
  eigenvalues    EBANDS =       -89.22792249
  atomic energy  EATOM  =       197.04175453
  Solvation  Ediel_sol  =         0.00000000
  ---------------------------------------------------
  free energy    TOTEN  =        12.99085238 eV

  energy without entropy =       12.99085238  energy(sigma->0) =       12.99085238


--------------------------------------------------------------------------------------------------------




--------------------------------------- Iteration      1(   2)  ---------------------------------------


     EDDAV:  cpu time    0.1800: real time    0.1800
       DOS:  cpu time    0.0002: real time    0.0002
    --------------------------------------------
      LOOP:  cpu time    0.1802: real time    0.1802

 eigenvalue-minimisations  :    80
 total energy-change (2. order) :-0.3683598E+02  (-0.3683598E+02)
 number of electron       8.0000000 magnetization 
 augmentation part        8.0000000 magnetization 

 Free energy of the ion-electron system (eV)
  ---------------------------------------------------
  alpha Z        PSCENC =         0.23466685
  Ewald energy   TEWEN  =       127.57568154
  -Hartree energ DENC   =      -243.97737931
  -exchange      EXHF   =         0.00000000
  -V(xc)+E(xc)   XCENC  =        21.94896820
  PAW double counting   =       117.05815612     -117.66307307
  entropy T*S    EENTRO =        -0.00000000
  eigenvalues    EBANDS =      -126.06390304
  atomic energy  EATOM  =       197.04175453
  Solvation  Ediel_sol  =         0.00000000
  ---------------------------------------------------
  free energy    TOTEN  =       -23.84512817 eV

  energy without entropy =      -23.84512817  energy(sigma->0) =      -23.84512817


--------------------------------------------------------------------------------------------------------




--------------------------------------- Iteration      1(   3)  ---------------------------------------


     EDDAV:  cpu time    0.1548: real time    0.1548
       DOS:  cpu time    0.0002: real time    0.0002
    --------------------------------------------
      LOOP:  cpu time    0.1550: real time    0.1550

 eigenvalue-minimisations  :    64
 total energy-change (2. order) :-0.3402542E+01  (-0.3402542E+01)
 number of electron       8.0000000 magnetization 
 augmentation part        8.0000000 magnetization 

 Free energy of the ion-electron system (eV)
  ---------------------------------------------------
  alpha Z        PSCENC =         0.23466685
  Ewald energy   TEWEN  =       127.57568154
  -Hartree energ DENC   =      -243.97737931
  -exchange      EXHF   =         0.00000000
  -V(xc)+E(xc)   XCENC  =        21.94896820
  PAW double counting   =       117.05815612     -117.66307307
  entropy T*S    EENTRO =        -0.00000000
  eigenvalues    EBANDS =      -129.46644472
  atomic energy  EATOM  =       197.04175453
  Solvation  Ediel_sol  =         0.00000000
  ---------------------------------------------------
  free energy    TOTEN  =       -27.24766985 eV

  energy without entropy =      -27.24766985  energy(sigma->0) =      -27.24766985


--------------------------------------------------------------------------------------------------------




--------------------------------------- Iteration      1(   4)  ---------------------------------------


     EDDAV:  cpu time    0.2573: real time    0.2605
       DOS:  cpu time    0.0002: real time    0.0002
    --------------------------------------------
      LOOP:  cpu time    0.2575: real time    0.2607

 eigenvalue-minimisations  :   128
 total energy-change (2. order) :-0.1364510E+00  (-0.1364510E+00)
 number of electron       8.0000000 magnetization 
 augmentation part        8.0000000 magnetization 

 Free energy of the ion-electron system (eV)
  ---------------------------------------------------
  alpha Z        PSCENC =         0.23466685
  Ewald energy   TEWEN  =       127.57568154
  -Hartree energ DENC   =      -243.97737931
  -exchange      EXHF   =         0.00000000
  -V(xc)+E(xc)   XCENC  =        21.94896820
  PAW double counting   =       117.05815612     -117.66307307
  entropy T*S    EENTRO =        -0.00000000
  eigenvalues    EBANDS =      -129.60289574
  atomic energy  EATOM  =       197.04175453
  Solvation  Ediel_sol  =         0.00000000
  ---------------------------------------------------
  free energy    TOTEN  =       -27.38412087 eV

  energy without entropy =      -27.38412087  energy(sigma->0) =      -27.38412087


--------------------------------------------------------------------------------------------------------




--------------------------------------- Iteration      1(   5)  ---------------------------------------


     EDDAV:  cpu time    0.2068: real time    0.2068
       DOS:  cpu time    0.0002: real time    0.0002
    CHARGE:  cpu time    0.0221: real time    0.0221
    MIXING:  cpu time    0.0049: real time    0.0049
    --------------------------------------------
      LOOP:  cpu time    0.2340: real time    0.2340

 eigenvalue-minimisations  :    96
 total energy-change (2. order) :-0.4543574E-04  (-0.4543601E-04)
 number of electron       8.0000002 magnetization 
 augmentation part        0.2213641 magnetization 

 Broyden mixing:
  rms(total) = 0.85271E+00    rms(broyden)= 0.85250E+00
  rms(prec ) = 0.12037E+01
  weight for this iteration     100.00

 Free energy of the ion-electron system (eV)
  ---------------------------------------------------
  alpha Z        PSCENC =         0.23466685
  Ewald energy   TEWEN  =       127.57568154
  -Hartree energ DENC   =      -243.97737931
  -exchange      EXHF   =         0.00000000
  -V(xc)+E(xc)   XCENC  =        21.94896820
  PAW double counting   =       117.05815612     -117.66307307
  entropy T*S    EENTRO =        -0.00000000
  eigenvalues    EBANDS =      -129.60294118
  atomic energy  EATOM  =       197.04175453
  Solvation  Ediel_sol  =         0.00000000
  ---------------------------------------------------
  free energy    TOTEN  =       -27.38416631 eV

  energy without entropy =      -27.38416631  energy(sigma->0) =      -27.38416631


--------------------------------------------------------------------------------------------------------




--------------------------------------- Iteration      1(   6)  ---------------------------------------


    POTLOK:  cpu time    0.1680: real time    0.1680
    SETDIJ:  cpu time    0.0026: real time    0.0026
    EDDIAG:  cpu time    0.0473: real time    0.0571
  RMM-DIIS:  cpu time    0.1763: real time    0.1778
    ORTHCH:  cpu time    0.0018: real time    0.0018
       DOS:  cpu time    0.0002: real time    0.0002
    CHARGE:  cpu time    0.0213: real time    0.0213
    MIXING:  cpu time    0.0058: real time    0.0076
    --------------------------------------------
      LOOP:  cpu time    0.4232: real time    0.4364

 eigenvalue-minimisations  :    64
 total energy-change (2. order) : 0.2770678E+01  (-0.5087605E+00)
 number of electron       8.0000001 magnetization 
 augmentation part        0.1951053 magnetization 

 Broyden mixing:
  rms(total) = 0.42132E+00    rms(broyden)= 0.42122E+00
  rms(prec ) = 0.54396E+00
  weight for this iteration     100.00

 eigenvalues of (default mixing * dielectric matrix)
  average eigenvalue GAMMA=   1.2965
  1.2965

 Free energy of the ion-electron system (eV)
  ---------------------------------------------------
  alpha Z        PSCENC =         0.23466685
  Ewald energy   TEWEN  =       127.57568154
  -Hartree energ DENC   =      -263.28188935
  -exchange      EXHF   =         0.00000000
  -V(xc)+E(xc)   XCENC  =        23.12100433
  PAW double counting   =       234.86775155     -235.64168921
  entropy T*S    EENTRO =        -0.00000000
  eigenvalues    EBANDS =      -108.53076852
  atomic energy  EATOM  =       197.04175453
  Solvation  Ediel_sol  =         0.00000000
  ---------------------------------------------------
  free energy    TOTEN  =       -24.61348827 eV

  energy without entropy =      -24.61348827  energy(sigma->0) =      -24.61348827


--------------------------------------------------------------------------------------------------------




--------------------------------------- Iteration      1(   7)  ---------------------------------------


    POTLOK:  cpu time    0.1667: real time    0.1668
    SETDIJ:  cpu time    0.0030: real time    0.0030
    EDDIAG:  cpu time    0.0417: real time    0.0418
  RMM-DIIS:  cpu time    0.1723: real time    0.1723
    ORTHCH:  cpu time    0.0021: real time    0.0021
       DOS:  cpu time    0.0002: real time    0.0002
    CHARGE:  cpu time    0.0199: real time    0.0199
    MIXING:  cpu time    0.0058: real time    0.0058
    --------------------------------------------
      LOOP:  cpu time    0.4118: real time    0.4118

 eigenvalue-minimisations  :    64
 total energy-change (2. order) : 0.4692634E+00  (-0.1103934E+00)
 number of electron       8.0000001 magnetization 
 augmentation part        0.1850706 magnetization 

 Broyden mixing:
  rms(total) = 0.22503E+00    rms(broyden)= 0.22497E+00
  rms(prec ) = 0.27185E+00
  weight for this iteration     100.00

 eigenvalues of (default mixing * dielectric matrix)
  average eigenvalue GAMMA=   1.8386
  1.4424  2.2347

 Free energy of the ion-electron system (eV)
  ---------------------------------------------------
  alpha Z        PSCENC =         0.23466685
  Ewald energy   TEWEN  =       127.57568154
  -Hartree energ DENC   =      -274.52156643
  -exchange      EXHF   =         0.00000000
  -V(xc)+E(xc)   XCENC  =        23.95070192
  PAW double counting   =       355.29432853     -356.10416070
  entropy T*S    EENTRO =        -0.00000000
  eigenvalues    EBANDS =       -97.61563107
  atomic energy  EATOM  =       197.04175453
  Solvation  Ediel_sol  =         0.00000000
  ---------------------------------------------------
  free energy    TOTEN  =       -24.14422484 eV

  energy without entropy =      -24.14422484  energy(sigma->0) =      -24.14422484


--------------------------------------------------------------------------------------------------------




--------------------------------------- Iteration      1(   8)  ---------------------------------------


    POTLOK:  cpu time    0.1608: real time    0.1609
    SETDIJ:  cpu time    0.0034: real time    0.0034
    EDDIAG:  cpu time    0.0418: real time    0.0418
  RMM-DIIS:  cpu time    0.1717: real time    0.1717
    ORTHCH:  cpu time    0.0018: real time    0.0018
       DOS:  cpu time    0.0002: real time    0.0002
    CHARGE:  cpu time    0.0195: real time    0.0195
    MIXING:  cpu time    0.0057: real time    0.0057
    --------------------------------------------
      LOOP:  cpu time    0.4049: real time    0.4049

 eigenvalue-minimisations  :    64
 total energy-change (2. order) : 0.1445930E+00  (-0.1629537E-01)
 number of electron       8.0000001 magnetization 
 augmentation part        0.1837131 magnetization 

 Broyden mixing:
  rms(total) = 0.22826E-01    rms(broyden)= 0.22804E-01
  rms(prec ) = 0.51986E-01
  weight for this iteration     100.00

 eigenvalues of (default mixing * dielectric matrix)
  average eigenvalue GAMMA=   1.5417
  2.2478  0.9843  1.3930

 Free energy of the ion-electron system (eV)
  ---------------------------------------------------
  alpha Z        PSCENC =         0.23466685
  Ewald energy   TEWEN  =       127.57568154
  -Hartree energ DENC   =      -279.92358012
  -exchange      EXHF   =         0.00000000
  -V(xc)+E(xc)   XCENC  =        24.48626218
  PAW double counting   =       460.02906179     -460.80758421
  entropy T*S    EENTRO =        -0.00000000
  eigenvalues    EBANDS =       -92.63589437
  atomic energy  EATOM  =       197.04175453
  Solvation  Ediel_sol  =         0.00000000
  ---------------------------------------------------
  free energy    TOTEN  =       -23.99963181 eV

  energy without entropy =      -23.99963181  energy(sigma->0) =      -23.99963181


--------------------------------------------------------------------------------------------------------




--------------------------------------- Iteration      1(   9)  ---------------------------------------


    POTLOK:  cpu time    0.1608: real time    0.1608
    SETDIJ:  cpu time    0.0032: real time    0.0032
    EDDIAG:  cpu time    0.0419: real time    0.0419
  RMM-DIIS:  cpu time    0.1740: real time    0.1740
    ORTHCH:  cpu time    0.0018: real time    0.0018
       DOS:  cpu time    0.0002: real time    0.0002
    CHARGE:  cpu time    0.0201: real time    0.0201
    MIXING:  cpu time    0.0063: real time    0.0074
    --------------------------------------------
      LOOP:  cpu time    0.4083: real time    0.4095

 eigenvalue-minimisations  :    64
 total energy-change (2. order) : 0.5552320E-02  (-0.1079758E-02)
 number of electron       8.0000001 magnetization 
 augmentation part        0.1831622 magnetization 

 Broyden mixing:
  rms(total) = 0.19268E-01    rms(broyden)= 0.19265E-01
  rms(prec ) = 0.39733E-01
  weight for this iteration     100.00

 eigenvalues of (default mixing * dielectric matrix)
  average eigenvalue GAMMA=   2.0815
  1.0040  1.3606  2.9806  2.9806

 Free energy of the ion-electron system (eV)
  ---------------------------------------------------
  alpha Z        PSCENC =         0.23466685
  Ewald energy   TEWEN  =       127.57568154
  -Hartree energ DENC   =      -281.15519353
  -exchange      EXHF   =         0.00000000
  -V(xc)+E(xc)   XCENC  =        24.55330937
  PAW double counting   =       462.72080617     -463.50206089
  entropy T*S    EENTRO =        -0.00000000
  eigenvalues    EBANDS =       -91.46304354
  atomic energy  EATOM  =       197.04175453
  Solvation  Ediel_sol  =         0.00000000
  ---------------------------------------------------
  free energy    TOTEN  =       -23.99407949 eV

  energy without entropy =      -23.99407949  energy(sigma->0) =      -23.99407949


--------------------------------------------------------------------------------------------------------




--------------------------------------- Iteration      1(  10)  ---------------------------------------


    POTLOK:  cpu time    0.1558: real time    0.1558
    SETDIJ:  cpu time    0.0032: real time    0.0032
    EDDIAG:  cpu time    0.0411: real time    0.0411
  RMM-DIIS:  cpu time    0.1738: real time    0.1738
    ORTHCH:  cpu time    0.0018: real time    0.0018
       DOS:  cpu time    0.0002: real time    0.0002
    CHARGE:  cpu time    0.0201: real time    0.0201
    MIXING:  cpu time    0.0064: real time    0.0064
    --------------------------------------------
      LOOP:  cpu time    0.4023: real time    0.4023

 eigenvalue-minimisations  :    64
 total energy-change (2. order) : 0.6412882E-02  (-0.2414781E-02)
 number of electron       8.0000001 magnetization 
 augmentation part        0.1821398 magnetization 

 Broyden mixing:
  rms(total) = 0.27022E-01    rms(broyden)= 0.27020E-01
  rms(prec ) = 0.34587E-01
  weight for this iteration     100.00

 eigenvalues of (default mixing * dielectric matrix)
  average eigenvalue GAMMA=   1.7874
  3.0680  2.4005  0.9844  1.2419  1.2419

 Free energy of the ion-electron system (eV)
  ---------------------------------------------------
  alpha Z        PSCENC =         0.23466685
  Ewald energy   TEWEN  =       127.57568154
  -Hartree energ DENC   =      -283.32453741
  -exchange      EXHF   =         0.00000000
  -V(xc)+E(xc)   XCENC  =        24.62352825
  PAW double counting   =       447.56789914     -448.35249355
  entropy T*S    EENTRO =        -0.00000000
  eigenvalues    EBANDS =       -89.35416596
  atomic energy  EATOM  =       197.04175453
  Solvation  Ediel_sol  =         0.00000000
  ---------------------------------------------------
  free energy    TOTEN  =       -23.98766661 eV

  energy without entropy =      -23.98766661  energy(sigma->0) =      -23.98766661


--------------------------------------------------------------------------------------------------------




--------------------------------------- Iteration      1(  11)  ---------------------------------------


    POTLOK:  cpu time    0.1528: real time    0.1528
    SETDIJ:  cpu time    0.0033: real time    0.0033
    EDDIAG:  cpu time    0.0416: real time    0.0416
  RMM-DIIS:  cpu time    0.1704: real time    0.1704
    ORTHCH:  cpu time    0.0019: real time    0.0019
       DOS:  cpu time    0.0002: real time    0.0002
    CHARGE:  cpu time    0.0199: real time    0.0199
    MIXING:  cpu time    0.0062: real time    0.0062
    --------------------------------------------
      LOOP:  cpu time    0.3963: real time    0.3963

 eigenvalue-minimisations  :    64
 total energy-change (2. order) :-0.9178602E-03  (-0.8833887E-03)
 number of electron       8.0000001 magnetization 
 augmentation part        0.1825226 magnetization 

 Broyden mixing:
  rms(total) = 0.95512E-02    rms(broyden)= 0.95479E-02
  rms(prec ) = 0.15098E-01
  weight for this iteration     100.00

 eigenvalues of (default mixing * dielectric matrix)
  average eigenvalue GAMMA=   2.2680
  4.8108  3.0737  2.4274  1.2631  1.0165  1.0165

 Free energy of the ion-electron system (eV)
  ---------------------------------------------------
  alpha Z        PSCENC =         0.23466685
  Ewald energy   TEWEN  =       127.57568154
  -Hartree energ DENC   =      -283.22284168
  -exchange      EXHF   =         0.00000000
  -V(xc)+E(xc)   XCENC  =        24.63824957
  PAW double counting   =       456.53857483     -457.31549566
  entropy T*S    EENTRO =        -0.00000000
  eigenvalues    EBANDS =       -89.47917446
  atomic energy  EATOM  =       197.04175453
  Solvation  Ediel_sol  =         0.00000000
  ---------------------------------------------------
  free energy    TOTEN  =       -23.98858447 eV

  energy without entropy =      -23.98858447  energy(sigma->0) =      -23.98858447


--------------------------------------------------------------------------------------------------------




--------------------------------------- Iteration      1(  12)  ---------------------------------------


    POTLOK:  cpu time    0.1459: real time    0.1459
    SETDIJ:  cpu time    0.0030: real time    0.0030
    EDDIAG:  cpu time    0.0412: real time    0.0412
  RMM-DIIS:  cpu time    0.1723: real time    0.1723
    ORTHCH:  cpu time    0.0018: real time    0.0018
       DOS:  cpu time    0.0002: real time    0.0002
    CHARGE:  cpu time    0.0199: real time    0.0199
    MIXING:  cpu time    0.0064: real time    0.0064
    --------------------------------------------
      LOOP:  cpu time    0.3908: real time    0.3908

 eigenvalue-minimisations  :    64
 total energy-change (2. order) :-0.9178293E-02  (-0.2863442E-03)
 number of electron       8.0000001 magnetization 
 augmentation part        0.1826978 magnetization 

 Broyden mixing:
  rms(total) = 0.11706E-01    rms(broyden)= 0.11705E-01
  rms(prec ) = 0.15359E-01
  weight for this iteration     100.00

 eigenvalues of (default mixing * dielectric matrix)
  average eigenvalue GAMMA=   2.0144
  4.7859  2.9259  2.4217  1.2049  1.0126  1.0126  0.7372

 Free energy of the ion-electron system (eV)
  ---------------------------------------------------
  alpha Z        PSCENC =         0.23466685
  Ewald energy   TEWEN  =       127.57568154
  -Hartree energ DENC   =      -283.44811912
  -exchange      EXHF   =         0.00000000
  -V(xc)+E(xc)   XCENC  =        24.63013067
  PAW double counting   =       453.15063304     -453.92700316
  entropy T*S    EENTRO =        -0.00000000
  eigenvalues    EBANDS =       -89.25550712
  atomic energy  EATOM  =       197.04175453
  Solvation  Ediel_sol  =         0.00000000
  ---------------------------------------------------
  free energy    TOTEN  =       -23.99776276 eV

  energy without entropy =      -23.99776276  energy(sigma->0) =      -23.99776276


--------------------------------------------------------------------------------------------------------




--------------------------------------- Iteration      1(  13)  ---------------------------------------


    POTLOK:  cpu time    0.1444: real time    0.1444
    SETDIJ:  cpu time    0.0031: real time    0.0031
    EDDIAG:  cpu time    0.0408: real time    0.0408
  RMM-DIIS:  cpu time    0.1709: real time    0.1709
    ORTHCH:  cpu time    0.0018: real time    0.0018
       DOS:  cpu time    0.0002: real time    0.0002
    CHARGE:  cpu time    0.0198: real time    0.0198
    MIXING:  cpu time    0.0065: real time    0.0065
    --------------------------------------------
      LOOP:  cpu time    0.3875: real time    0.3875

 eigenvalue-minimisations  :    64
 total energy-change (2. order) :-0.6176396E-03  (-0.1054359E-03)
 number of electron       8.0000001 magnetization 
 augmentation part        0.1824486 magnetization 

 Broyden mixing:
  rms(total) = 0.41095E-02    rms(broyden)= 0.41092E-02
  rms(prec ) = 0.58623E-02
  weight for this iteration     100.00

 eigenvalues of (default mixing * dielectric matrix)
  average eigenvalue GAMMA=   2.4084
  6.0655  4.0715  2.4054  2.4054  1.2182  1.2182  0.9883  0.8946

 Free energy of the ion-electron system (eV)
  ---------------------------------------------------
  alpha Z        PSCENC =         0.23466685
  Ewald energy   TEWEN  =       127.57568154
  -Hartree energ DENC   =      -283.62597471
  -exchange      EXHF   =         0.00000000
  -V(xc)+E(xc)   XCENC  =        24.63482706
  PAW double counting   =       452.92384778     -453.70255084
  entropy T*S    EENTRO =        -0.00000000
  eigenvalues    EBANDS =       -89.08063261
  atomic energy  EATOM  =       197.04175453
  Solvation  Ediel_sol  =         0.00000000
  ---------------------------------------------------
  free energy    TOTEN  =       -23.99838040 eV

  energy without entropy =      -23.99838040  energy(sigma->0) =      -23.99838040


--------------------------------------------------------------------------------------------------------




--------------------------------------- Iteration      1(  14)  ---------------------------------------


    POTLOK:  cpu time    0.1423: real time    0.1423
    SETDIJ:  cpu time    0.0031: real time    0.0031
    EDDIAG:  cpu time    0.0407: real time    0.0407
  RMM-DIIS:  cpu time    0.1723: real time    0.1723
    ORTHCH:  cpu time    0.0018: real time    0.0018
       DOS:  cpu time    0.0002: real time    0.0002
    CHARGE:  cpu time    0.0193: real time    0.0193
    MIXING:  cpu time    0.0065: real time    0.0065
    --------------------------------------------
      LOOP:  cpu time    0.3863: real time    0.3863

 eigenvalue-minimisations  :    64
 total energy-change (2. order) :-0.2857450E-02  (-0.1102697E-03)
 number of electron       8.0000001 magnetization 
 augmentation part        0.1823521 magnetization 

 Broyden mixing:
  rms(total) = 0.24654E-02    rms(broyden)= 0.24638E-02
  rms(prec ) = 0.32578E-02
  weight for this iteration     100.00

 eigenvalues of (default mixing * dielectric matrix)
  average eigenvalue GAMMA=   2.3199
  6.4261  4.0118  2.5968  2.3533  1.1896  1.1896  1.1940  0.9588  0.9588

 Free energy of the ion-electron system (eV)
  ---------------------------------------------------
  alpha Z        PSCENC =         0.23466685
  Ewald energy   TEWEN  =       127.57568154
  -Hartree energ DENC   =      -283.61055591
  -exchange      EXHF   =         0.00000000
  -V(xc)+E(xc)   XCENC  =        24.62442262
  PAW double counting   =       452.32542094     -453.10515289
  entropy T*S    EENTRO =        -0.00000000
  eigenvalues    EBANDS =       -89.08747553
  atomic energy  EATOM  =       197.04175453
  Solvation  Ediel_sol  =         0.00000000
  ---------------------------------------------------
  free energy    TOTEN  =       -24.00123785 eV

  energy without entropy =      -24.00123785  energy(sigma->0) =      -24.00123785


--------------------------------------------------------------------------------------------------------




--------------------------------------- Iteration      1(  15)  ---------------------------------------


    POTLOK:  cpu time    0.1414: real time    0.1414
    SETDIJ:  cpu time    0.0030: real time    0.0029
    EDDIAG:  cpu time    0.0402: real time    0.0402
  RMM-DIIS:  cpu time    0.1710: real time    0.1710
    ORTHCH:  cpu time    0.0017: real time    0.0017
       DOS:  cpu time    0.0002: real time    0.0002
    CHARGE:  cpu time    0.0194: real time    0.0194
    MIXING:  cpu time    0.0069: real time    0.0069
    --------------------------------------------
      LOOP:  cpu time    0.3837: real time    0.3837

 eigenvalue-minimisations  :    64
 total energy-change (2. order) :-0.2562733E-03  (-0.4944187E-05)
 number of electron       8.0000001 magnetization 
 augmentation part        0.1822948 magnetization 

 Broyden mixing:
  rms(total) = 0.20401E-02    rms(broyden)= 0.20399E-02
  rms(prec ) = 0.27039E-02
  weight for this iteration     100.00

 eigenvalues of (default mixing * dielectric matrix)
  average eigenvalue GAMMA=   2.5269
  7.5423  4.8059  2.7596  2.6638  2.1399  1.2467  1.2467  0.9837  0.9837  0.8968

 Free energy of the ion-electron system (eV)
  ---------------------------------------------------
  alpha Z        PSCENC =         0.23466685
  Ewald energy   TEWEN  =       127.57568154
  -Hartree energ DENC   =      -283.62996161
  -exchange      EXHF   =         0.00000000
  -V(xc)+E(xc)   XCENC  =        24.62593582
  PAW double counting   =       452.47568173     -453.25511339
  entropy T*S    EENTRO =        -0.00000000
  eigenvalues    EBANDS =       -89.07013960
  atomic energy  EATOM  =       197.04175453
  Solvation  Ediel_sol  =         0.00000000
  ---------------------------------------------------
  free energy    TOTEN  =       -24.00149413 eV

  energy without entropy =      -24.00149413  energy(sigma->0) =      -24.00149413


--------------------------------------------------------------------------------------------------------




--------------------------------------- Iteration      1(  16)  ---------------------------------------


    POTLOK:  cpu time    0.1428: real time    0.1428
    SETDIJ:  cpu time    0.0027: real time    0.0027
    EDDIAG:  cpu time    0.0364: real time    0.0364
  RMM-DIIS:  cpu time    0.1526: real time    0.1526
    ORTHCH:  cpu time    0.0016: real time    0.0016
       DOS:  cpu time    0.0002: real time    0.0002
    CHARGE:  cpu time    0.0185: real time    0.0185
    MIXING:  cpu time    0.0063: real time    0.0063
    --------------------------------------------
      LOOP:  cpu time    0.3611: real time    0.3612

 eigenvalue-minimisations  :    64
 total energy-change (2. order) :-0.2215323E-03  (-0.1336792E-04)
 number of electron       8.0000001 magnetization 
 augmentation part        0.1823573 magnetization 

 Broyden mixing:
  rms(total) = 0.68898E-03    rms(broyden)= 0.68847E-03
  rms(prec ) = 0.94215E-03
  weight for this iteration     100.00

 eigenvalues of (default mixing * dielectric matrix)
  average eigenvalue GAMMA=   2.4797
  7.7694  4.8341  3.3227  2.4394  2.1474  1.2734  1.2734  1.3200  1.0409  0.9280
  0.9280

 Free energy of the ion-electron system (eV)
  ---------------------------------------------------
  alpha Z        PSCENC =         0.23466685
  Ewald energy   TEWEN  =       127.57568154
  -Hartree energ DENC   =      -283.57720549
  -exchange      EXHF   =         0.00000000
  -V(xc)+E(xc)   XCENC  =        24.62409513
  PAW double counting   =       452.48751998     -453.26626030
  entropy T*S    EENTRO =        -0.00000000
  eigenvalues    EBANDS =       -89.12196791
  atomic energy  EATOM  =       197.04175453
  Solvation  Ediel_sol  =         0.00000000
  ---------------------------------------------------
  free energy    TOTEN  =       -24.00171566 eV

  energy without entropy =      -24.00171566  energy(sigma->0) =      -24.00171566


--------------------------------------------------------------------------------------------------------




--------------------------------------- Iteration      1(  17)  ---------------------------------------


    POTLOK:  cpu time    0.1378: real time    0.1379
    SETDIJ:  cpu time    0.0024: real time    0.0024
    EDDIAG:  cpu time    0.0367: real time    0.0367
  RMM-DIIS:  cpu time    0.1562: real time    0.1562
    ORTHCH:  cpu time    0.0016: real time    0.0016
       DOS:  cpu time    0.0002: real time    0.0002
    CHARGE:  cpu time    0.0187: real time    0.0187
    MIXING:  cpu time    0.0065: real time    0.0065
    --------------------------------------------
      LOOP:  cpu time    0.3600: real time    0.3601

 eigenvalue-minimisations  :    64
 total energy-change (2. order) :-0.3645325E-04  (-0.1787584E-05)
 number of electron       8.0000001 magnetization 
 augmentation part        0.1823335 magnetization 

 Broyden mixing:
  rms(total) = 0.26678E-03    rms(broyden)= 0.26676E-03
  rms(prec ) = 0.39705E-03
  weight for this iteration     100.00

 eigenvalues of (default mixing * dielectric matrix)
  average eigenvalue GAMMA=   2.5896
  8.4796  5.2970  3.8489  2.5760  2.4949  1.8990  1.2820  1.2820  1.0440  0.9855
  0.9855  0.9012

 Free energy of the ion-electron system (eV)
  ---------------------------------------------------
  alpha Z        PSCENC =         0.23466685
  Ewald energy   TEWEN  =       127.57568154
  -Hartree energ DENC   =      -283.61660138
  -exchange      EXHF   =         0.00000000
  -V(xc)+E(xc)   XCENC  =        24.62586841
  PAW double counting   =       452.48035391     -453.25939987
  entropy T*S    EENTRO =        -0.00000000
  eigenvalues    EBANDS =       -89.08407610
  atomic energy  EATOM  =       197.04175453
  Solvation  Ediel_sol  =         0.00000000
  ---------------------------------------------------
  free energy    TOTEN  =       -24.00175211 eV

  energy without entropy =      -24.00175211  energy(sigma->0) =      -24.00175211


--------------------------------------------------------------------------------------------------------




--------------------------------------- Iteration      1(  18)  ---------------------------------------


    POTLOK:  cpu time    0.1411: real time    0.1411
    SETDIJ:  cpu time    0.0027: real time    0.0027
    EDDIAG:  cpu time    0.0361: real time    0.0361
  RMM-DIIS:  cpu time    0.1255: real time    0.1255
    ORTHCH:  cpu time    0.0017: real time    0.0017
       DOS:  cpu time    0.0002: real time    0.0002
    CHARGE:  cpu time    0.0183: real time    0.0183
    MIXING:  cpu time    0.0067: real time    0.0067
    --------------------------------------------
      LOOP:  cpu time    0.3324: real time    0.3324

 eigenvalue-minimisations  :    48
 total energy-change (2. order) :-0.1496619E-04  (-0.1020496E-06)
 number of electron       8.0000001 magnetization 
 augmentation part        0.1823352 magnetization 

 Broyden mixing:
  rms(total) = 0.69786E-04    rms(broyden)= 0.69785E-04
  rms(prec ) = 0.10995E-03
  weight for this iteration     100.00

 eigenvalues of (default mixing * dielectric matrix)
  average eigenvalue GAMMA=   2.5808
  8.5480  5.4891  3.7265  3.1075  2.3228  2.3228  1.5553  1.2591  1.2591  0.8968
  0.9932  0.9932  1.0767

 Free energy of the ion-electron system (eV)
  ---------------------------------------------------
  alpha Z        PSCENC =         0.23466685
  Ewald energy   TEWEN  =       127.57568154
  -Hartree energ DENC   =      -283.60529357
  -exchange      EXHF   =         0.00000000
  -V(xc)+E(xc)   XCENC  =        24.62525884
  PAW double counting   =       452.46604221     -453.24500130
  entropy T*S    EENTRO =        -0.00000000
  eigenvalues    EBANDS =       -89.09487618
  atomic energy  EATOM  =       197.04175453
  Solvation  Ediel_sol  =         0.00000000
  ---------------------------------------------------
  free energy    TOTEN  =       -24.00176708 eV

  energy without entropy =      -24.00176708  energy(sigma->0) =      -24.00176708


--------------------------------------------------------------------------------------------------------




--------------------------------------- Iteration      1(  19)  ---------------------------------------


    POTLOK:  cpu time    0.1429: real time    0.1429
    SETDIJ:  cpu time    0.0025: real time    0.0025
    EDDIAG:  cpu time    0.0367: real time    0.0367
  RMM-DIIS:  cpu time    0.1212: real time    0.1212
    ORTHCH:  cpu time    0.0017: real time    0.0017
       DOS:  cpu time    0.0002: real time    0.0002
    CHARGE:  cpu time    0.0182: real time    0.0182
    MIXING:  cpu time    0.0070: real time    0.0070
    --------------------------------------------
      LOOP:  cpu time    0.3303: real time    0.3304

 eigenvalue-minimisations  :    48
 total energy-change (2. order) :-0.3826398E-05  (-0.1406325E-06)
 number of electron       8.0000001 magnetization 
 augmentation part        0.1823420 magnetization 

 Broyden mixing:
  rms(total) = 0.14601E-03    rms(broyden)= 0.14599E-03
  rms(prec ) = 0.20248E-03
  weight for this iteration     100.00

 eigenvalues of (default mixing * dielectric matrix)
  average eigenvalue GAMMA=   2.5654
  8.6303  5.5932  4.0122  3.3188  2.4674  2.4674  2.0227  1.2719  1.2719  1.0327
  0.9104  0.9464  0.9850  0.9850

 Free energy of the ion-electron system (eV)
  ---------------------------------------------------
  alpha Z        PSCENC =         0.23466685
  Ewald energy   TEWEN  =       127.57568154
  -Hartree energ DENC   =      -283.59689314
  -exchange      EXHF   =         0.00000000
  -V(xc)+E(xc)   XCENC  =        24.62473352
  PAW double counting   =       452.44076128     -453.21966199
  entropy T*S    EENTRO =        -0.00000000
  eigenvalues    EBANDS =       -89.10281349
  atomic energy  EATOM  =       197.04175453
  Solvation  Ediel_sol  =         0.00000000
  ---------------------------------------------------
  free energy    TOTEN  =       -24.00177091 eV

  energy without entropy =      -24.00177091  energy(sigma->0) =      -24.00177091


--------------------------------------------------------------------------------------------------------




--------------------------------------- Iteration      1(  20)  ---------------------------------------


    POTLOK:  cpu time    0.1431: real time    0.1432
    SETDIJ:  cpu time    0.0025: real time    0.0025
    EDDIAG:  cpu time    0.0360: real time    0.0360
  RMM-DIIS:  cpu time    0.1245: real time    0.1245
    ORTHCH:  cpu time    0.0016: real time    0.0016
       DOS:  cpu time    0.0002: real time    0.0002
    --------------------------------------------
      LOOP:  cpu time    0.3079: real time    0.3079

 eigenvalue-minimisations  :    48
 total energy-change (2. order) :-0.8801636E-06  (-0.2841522E-07)
 number of electron       8.0000001 magnetization 
 augmentation part        0.1823420 magnetization 

 Free energy of the ion-electron system (eV)
  ---------------------------------------------------
  alpha Z        PSCENC =         0.23466685
  Ewald energy   TEWEN  =       127.57568154
  -Hartree energ DENC   =      -283.60180327
  -exchange      EXHF   =         0.00000000
  -V(xc)+E(xc)   XCENC  =        24.62497066
  PAW double counting   =       452.44192010     -453.22086863
  entropy T*S    EENTRO =        -0.00000000
  eigenvalues    EBANDS =       -89.09809356
  atomic energy  EATOM  =       197.04175453
  Solvation  Ediel_sol  =         0.00000000
  ---------------------------------------------------
  free energy    TOTEN  =       -24.00177179 eV

  energy without entropy =      -24.00177179  energy(sigma->0) =      -24.00177179


--------------------------------------------------------------------------------------------------------




 average (electrostatic) potential at core
  the test charge radii are     0.5201  0.6991
  (the norm of the test charge is              1.0000)
       1 -41.5400       2 -41.4369       3 -41.2385       4 -41.5224       5 -58.0335
 
 
 
 E-fermi :  -8.2014     XC(G=0):  -0.6850     alpha+bet : -0.2041


 k-point     1 :       0.2500    0.2500    0.2500
  band No.  band energies     occupation 
      1     -16.8079      2.00000
      2      -9.3001      2.00000
      3      -9.2929      2.00000
      4      -9.1480      2.00000
      5      -0.3373      0.00000
      6       0.5466      0.00000
      7       0.6601      0.00000
      8       0.6917      0.00000

 k-point     2 :      -0.2500    0.2500    0.2500
  band No.  band energies     occupation 
      1     -16.8080      2.00000
      2      -9.3001      2.00000
      3      -9.2929      2.00000
      4      -9.1481      2.00000
      5      -0.3340      0.00000
      6       0.5340      0.00000
      7       0.6477      0.00000
      8       0.6871      0.00000

 k-point     3 :       0.2500   -0.2500    0.2500
  band No.  band energies     occupation 
      1     -16.8080      2.00000
      2      -9.3002      2.00000
      3      -9.2930      2.00000
      4      -9.1481      2.00000
      5      -0.3310      0.00000
      6       0.5266      0.00000
      7       0.6444      0.00000
      8       0.6780      0.00000

 k-point     4 :      -0.2500   -0.2500    0.2500
  band No.  band energies     occupation 
      1     -16.8080      2.00000
      2      -9.3001      2.00000
      3      -9.2929      2.00000
      4      -9.1481      2.00000
      5      -0.3345      0.00000
      6       0.5410      0.00000
      7       0.6561      0.00000
      8       0.6800      0.00000


--------------------------------------------------------------------------------------------------------


 soft charge-density along one line, spin component           1
         0         1         2         3         4         5         6         7         8         9
 total charge-density along one line
 
 pseudopotential strength for first ion, spin component:           1
 -2.341  -4.035  -0.001  -0.001   0.001
 -4.035  -6.867  -0.003  -0.004   0.002
 -0.001  -0.003  -0.337   0.002  -0.001
 -0.001  -0.004   0.002  -0.336  -0.001
  0.001   0.002  -0.001  -0.001  -0.338
 total augmentation occupancy for first ion, spin component:           1
  3.558  -0.641   0.250   0.330  -0.135
 -0.641   0.130  -0.046  -0.061   0.025
  0.250  -0.046   0.024   0.019  -0.008
  0.330  -0.061   0.019   0.035  -0.010
 -0.135   0.025  -0.008  -0.010   0.013


------------------------ aborting loop because EDIFF is reached ----------------------------------------


    CHARGE:  cpu time    0.0551: real time    0.0551
    FORLOC:  cpu time    0.0143: real time    0.0143
    FORNL :  cpu time    0.0208: real time    0.0208
    STRESS:  cpu time    0.1605: real time    0.1612
    FORCOR:  cpu time    0.1464: real time    0.1464
    FORHAR:  cpu time    0.0449: real time    0.0449
    MIXING:  cpu time    0.0063: real time    0.0064
    OFIELD:  cpu time    0.0001: real time    0.0000

  FORCE on cell =-STRESS in cart. coord.  units (eV):
  Direction    XX          YY          ZZ          XY          YZ          ZX
  --------------------------------------------------------------------------------------
  Alpha Z     0.23467     0.23467     0.23467
  Ewald      42.20038    40.85167    44.52360    -0.49135     1.25350     0.79807
  Hartree    94.22492    93.20101    96.17868     0.45575     0.49752     0.23532
  E(xc)     -27.08256   -27.07709   -27.09425     0.00285     0.00476     0.00477
  Local    -195.35993  -193.17842  -199.30737    -0.37138    -1.55791    -0.90600
  n-local   -15.61574   -15.57405   -15.71393     0.05972     0.00250     0.00060
  augment     0.12179     0.12350     0.11750     0.00394    -0.00135    -0.00081
  Kinetic   100.26947    99.99108   100.91759    -0.17095    -0.23977    -0.21966
  Fock        0.00000     0.00000     0.00000     0.00000     0.00000     0.00000
  -------------------------------------------------------------------------------------
  Total      -1.00700    -1.42764    -0.14353    -0.51141    -0.04077    -0.08769
  in kB      -1.56289    -2.21573    -0.22276    -0.79372    -0.06328    -0.13610
  external pressure =       -1.33 kB  Pullay stress =        0.00 kB

  kinetic pressure (ideal gas correction) =      0.00 kB
  total pressure  =     -1.33 kB
  Total+kin.    -1.563      -2.216      -0.223      -0.794      -0.063      -0.136

 VOLUME and BASIS-vectors are now :
 -----------------------------------------------------------------------------
  energy-cutoff  :      400.00
  volume of cell :     1032.32
      direct lattice vectors                 reciprocal lattice vectors
    10.143409265  0.000000000  0.000000000     0.098586183 -0.002198259  0.000057505
     0.228585141 10.251447252  0.000000000     0.000000000  0.097547202 -0.001567518
    -0.002233599  0.159529885  9.927601472     0.000000000  0.000000000  0.100729265

  length of vectors
    10.143409265 10.253995413  9.928883409     0.098610705  0.097559796  0.100729265


 FORCES acting on ions
    electron-ion (+dipol)            ewald-force                    non-local-force                 convergence-correction
 -----------------------------------------------------------------------------------------------
   -.164E+02 0.301E+02 0.401E+02   0.182E+02 -.333E+02 -.445E+02   -.172E+01 0.320E+01 0.420E+01   0.737E-04 -.145E-03 -.164E-03
   0.517E+02 -.657E+01 0.316E+01   -.566E+02 0.723E+01 -.345E+01   0.530E+01 -.661E+00 0.322E+00   -.232E-03 0.259E-04 -.984E-05
   -.231E+02 -.454E+02 0.992E+00   0.249E+02 0.488E+02 -.113E+01   -.226E+01 -.441E+01 0.709E-01   0.103E-03 0.208E-03 -.273E-05
   -.122E+02 0.243E+02 -.453E+02   0.135E+02 -.268E+02 0.501E+02   -.130E+01 0.255E+01 -.475E+01   0.516E-04 -.114E-03 0.182E-03
   -.712E-01 -.352E+01 0.100E+01   0.111E+00 0.414E+01 -.107E+01   0.115E+00 0.371E+00 0.116E+00   0.381E-05 -.352E-04 0.271E-04
 -----------------------------------------------------------------------------------------------
   -.147E+00 -.105E+01 0.345E-01   0.355E-14 0.355E-14 0.000E+00   0.147E+00 0.105E+01 -.344E-01   0.143E-06 -.604E-04 0.330E-04
 
 
 POSITION                                       TOTAL-FORCE (eV/Angst)
 -----------------------------------------------------------------------------------
      5.54632      4.23167      3.58655         0.062168      0.054387     -0.141163
      4.11003      4.99482      4.35118         0.343270      0.000406      0.034386
      5.72428      5.86886      4.39648        -0.533211     -1.025404     -0.068763
      5.46037      4.35414      5.35509        -0.026961     -0.018630      0.128939
      5.20689      4.85708      4.41716         0.154424      0.989038      0.046730
 -----------------------------------------------------------------------------------
    total drift:                               -0.000310     -0.000204      0.000128


--------------------------------------------------------------------------------------------------------



  FREE ENERGIE OF THE ION-ELECTRON SYSTEM (eV)
  ---------------------------------------------------
  free  energy   TOTEN  =       -24.00177179 eV

  energy  without entropy=      -24.00177179  energy(sigma->0) =      -24.00177179
 


--------------------------------------------------------------------------------------------------------


    POTLOK:  cpu time    0.1454: real time    0.1454


--------------------------------------------------------------------------------------------------------


 stress matrix after NEB project (eV)
     -1.00700     -0.51141     -0.08769
     -0.51141     -1.42764     -0.04077
     -0.08769     -0.04077     -0.14353
  FORCES: max atom, RMS     1.157798    0.708264
  FORCE total and by dimension    1.583726    1.025404
  Stress total and by dimension    1.901212    1.427643
           RANDOM_SEED =         581409971                0                0
           RANDOM_SEED =         581409971               30                0
   IONSTEP:  cpu time    0.0037: real time    0.0074

  ENERGY OF THE ELECTRON-ION-THERMOSTAT SYSTEM (eV)
  ---------------------------------------------------
% ion-electron   TOTEN  =       -24.001772  see above
  kinetic energy EKIN   =         0.000478
  kin. lattice  EKIN_LAT=         0.000000  (temperature    0.92 K)
  nose potential ES     =         0.000000
  nose kinetic   EPS    =         0.000000
  ---------------------------------------------------
  total energy   ETOTAL =       -24.001294 eV

  maximum distance moved by ions :      0.27E-03

    WAVPRE:  cpu time    0.0429: real time    0.0429
    FEWALD:  cpu time    0.0007: real time    0.0007
    ORTHCH:  cpu time    0.0089: real time    0.0089
     LOOP+:  cpu time    7.5551: real time    7.6120


--------------------------------------- Iteration      2(   1)  ---------------------------------------


    POTLOK:  cpu time    0.1447: real time    0.1449
    SETDIJ:  cpu time    0.0025: real time    0.0025
     EDDAV:  cpu time    0.2004: real time    0.2004
       DOS:  cpu time    0.0003: real time    0.0003
    CHARGE:  cpu time    0.0181: real time    0.0181
    MIXING:  cpu time    0.0075: real time    0.0075
    --------------------------------------------
      LOOP:  cpu time    0.3735: real time    0.3736

 eigenvalue-minimisations  :    96
 total energy-change (2. order) :-0.3713778E-02  (-0.4017114E-03)
 number of electron       8.0000001 magnetization 
 augmentation part        0.1826166 magnetization 

 Broyden mixing:
  rms(total) = 0.30759E-02    rms(broyden)= 0.30739E-02
  rms(prec ) = 0.37657E-02
  weight for this iteration     100.00

 Free energy of the ion-electron system (eV)
  ---------------------------------------------------
  alpha Z        PSCENC =         0.23466685
  Ewald energy   TEWEN  =       127.74555787
  -Hartree energ DENC   =      -283.70688341
  -exchange      EXHF   =         0.00000000
  -V(xc)+E(xc)   XCENC  =        24.63021186
  PAW double counting   =       452.44355091     -453.22251057
  entropy T*S    EENTRO =        -0.00000000
  eigenvalues    EBANDS =       -89.17183272
  atomic energy  EATOM  =       197.04175453
  Solvation  Ediel_sol  =         0.00000000
  ---------------------------------------------------
  free energy    TOTEN  =       -24.00548468 eV

  energy without entropy =      -24.00548468  energy(sigma->0) =      -24.00548468


--------------------------------------------------------------------------------------------------------




--------------------------------------- Iteration      2(   2)  ---------------------------------------


    POTLOK:  cpu time    0.1492: real time    0.1492
    SETDIJ:  cpu time    0.0025: real time    0.0025
    EDDIAG:  cpu time    0.0361: real time    0.0361
  RMM-DIIS:  cpu time    0.1542: real time    0.1542
    ORTHCH:  cpu time    0.0017: real time    0.0017
       DOS:  cpu time    0.0002: real time    0.0002
    CHARGE:  cpu time    0.0180: real time    0.0180
    MIXING:  cpu time    0.0049: real time    0.0049
    --------------------------------------------
      LOOP:  cpu time    0.3666: real time    0.3666

 eigenvalue-minimisations  :    64
 total energy-change (2. order) : 0.1323268E-04  (-0.9355070E-05)
 number of electron       8.0000001 magnetization 
 augmentation part        0.1825655 magnetization 

 Broyden mixing:
  rms(total) = 0.15544E-02    rms(broyden)= 0.15540E-02
  rms(prec ) = 0.18324E-02
  weight for this iteration     100.00

 eigenvalues of (default mixing * dielectric matrix)
  average eigenvalue GAMMA=   1.6408
  1.6408

 Free energy of the ion-electron system (eV)
  ---------------------------------------------------
  alpha Z        PSCENC =         0.23466685
  Ewald energy   TEWEN  =       127.74555787
  -Hartree energ DENC   =      -283.74292894
  -exchange      EXHF   =         0.00000000
  -V(xc)+E(xc)   XCENC  =        24.63210223
  PAW double counting   =       453.04002886     -453.81940317
  entropy T*S    EENTRO =        -0.00000000
  eigenvalues    EBANDS =       -89.13724968
  atomic energy  EATOM  =       197.04175453
  Solvation  Ediel_sol  =         0.00000000
  ---------------------------------------------------
  free energy    TOTEN  =       -24.00547145 eV

  energy without entropy =      -24.00547145  energy(sigma->0) =      -24.00547145


--------------------------------------------------------------------------------------------------------




--------------------------------------- Iteration      2(   3)  ---------------------------------------


    POTLOK:  cpu time    0.1484: real time    0.1484
    SETDIJ:  cpu time    0.0025: real time    0.0025
    EDDIAG:  cpu time    0.0354: real time    0.0354
  RMM-DIIS:  cpu time    0.1537: real time    0.1537
    ORTHCH:  cpu time    0.0017: real time    0.0017
       DOS:  cpu time    0.0002: real time    0.0002
    CHARGE:  cpu time    0.0185: real time    0.0185
    MIXING:  cpu time    0.0050: real time    0.0050
    --------------------------------------------
      LOOP:  cpu time    0.3653: real time    0.3654

 eigenvalue-minimisations  :    64
 total energy-change (2. order) : 0.1124174E-05  (-0.2317560E-05)
 number of electron       8.0000001 magnetization 
 augmentation part        0.1825333 magnetization 

 Broyden mixing:
  rms(total) = 0.52737E-03    rms(broyden)= 0.52711E-03
  rms(prec ) = 0.62529E-03
  weight for this iteration     100.00

 eigenvalues of (default mixing * dielectric matrix)
  average eigenvalue GAMMA=   1.5684
  1.2316  1.9052

 Free energy of the ion-electron system (eV)
  ---------------------------------------------------
  alpha Z        PSCENC =         0.23466685
  Ewald energy   TEWEN  =       127.74555787
  -Hartree energ DENC   =      -283.76080228
  -exchange      EXHF   =         0.00000000
  -V(xc)+E(xc)   XCENC  =        24.63312116
  PAW double counting   =       453.34740475     -454.12698740
  entropy T*S    EENTRO =        -0.00000000
  eigenvalues    EBANDS =       -89.12018581
  atomic energy  EATOM  =       197.04175453
  Solvation  Ediel_sol  =         0.00000000
  ---------------------------------------------------
  free energy    TOTEN  =       -24.00547033 eV

  energy without entropy =      -24.00547033  energy(sigma->0) =      -24.00547033


--------------------------------------------------------------------------------------------------------




--------------------------------------- Iteration      2(   4)  ---------------------------------------


    POTLOK:  cpu time    0.1486: real time    0.1486
    SETDIJ:  cpu time    0.0026: real time    0.0026
    EDDIAG:  cpu time    0.0355: real time    0.0355
  RMM-DIIS:  cpu time    0.1238: real time    0.1238
    ORTHCH:  cpu time    0.0016: real time    0.0016
       DOS:  cpu time    0.0002: real time    0.0002
    --------------------------------------------
      LOOP:  cpu time    0.3123: real time    0.3123

 eigenvalue-minimisations  :    48
 total energy-change (2. order) :-0.4803562E-07  (-0.8123458E-07)
 number of electron       8.0000001 magnetization 
 augmentation part        0.1825333 magnetization 

 Free energy of the ion-electron system (eV)
  ---------------------------------------------------
  alpha Z        PSCENC =         0.23466685
  Ewald energy   TEWEN  =       127.74555787
  -Hartree energ DENC   =      -283.75619536
  -exchange      EXHF   =         0.00000000
  -V(xc)+E(xc)   XCENC  =        24.63298469
  PAW double counting   =       453.38436601     -454.16388106
  entropy T*S    EENTRO =        -0.00000000
  eigenvalues    EBANDS =       -89.12472391
  atomic energy  EATOM  =       197.04175453
  Solvation  Ediel_sol  =         0.00000000
  ---------------------------------------------------
  free energy    TOTEN  =       -24.00547037 eV

  energy without entropy =      -24.00547037  energy(sigma->0) =      -24.00547037


--------------------------------------------------------------------------------------------------------




 average (electrostatic) potential at core
  the test charge radii are     0.5201  0.6991
  (the norm of the test charge is              1.0000)
       1 -41.5361       2 -41.4417       3 -41.2562       4 -41.5188       5 -58.0280
 
 
 
 E-fermi :  -8.2072     XC(G=0):  -0.6951     alpha+bet : -0.2041


 k-point     1 :       0.2500    0.2500    0.2500
  band No.  band energies     occupation 
      1     -16.8128      2.00000
      2      -9.3001      2.00000
      3      -9.2926      2.00000
      4      -9.1567      2.00000
      5      -0.3389      0.00000
      6       0.5397      0.00000
      7       0.6548      0.00000
      8       0.6850      0.00000

 k-point     2 :      -0.2500    0.2500    0.2500
  band No.  band energies     occupation 
      1     -16.8128      2.00000
      2      -9.3002      2.00000
      3      -9.2926      2.00000
      4      -9.1568      2.00000
      5      -0.3356      0.00000
      6       0.5279      0.00000
      7       0.6426      0.00000
      8       0.6794      0.00000

 k-point     3 :       0.2500   -0.2500    0.2500
  band No.  band energies     occupation 
      1     -16.8128      2.00000
      2      -9.3002      2.00000
      3      -9.2927      2.00000
      4      -9.1568      2.00000
      5      -0.3325      0.00000
      6       0.5206      0.00000
      7       0.6392      0.00000
      8       0.6696      0.00000

 k-point     4 :      -0.2500   -0.2500    0.2500
  band No.  band energies     occupation 
      1     -16.8128      2.00000
      2      -9.3002      2.00000
      3      -9.2926      2.00000
      4      -9.1568      2.00000
      5      -0.3361      0.00000
      6       0.5337      0.00000
      7       0.6508      0.00000
      8       0.6734      0.00000


--------------------------------------------------------------------------------------------------------


 soft charge-density along one line, spin component           1
         0         1         2         3         4         5         6         7         8         9
 total charge-density along one line
 
 pseudopotential strength for first ion, spin component:           1
 -2.341  -4.035  -0.001  -0.001   0.001
 -4.035  -6.866  -0.003  -0.004   0.002
 -0.001  -0.003  -0.337   0.002  -0.001
 -0.001  -0.004   0.002  -0.336  -0.001
  0.001   0.002  -0.001  -0.001  -0.338
 total augmentation occupancy for first ion, spin component:           1
  3.557  -0.640   0.249   0.330  -0.135
 -0.640   0.129  -0.046  -0.061   0.025
  0.249  -0.046   0.024   0.019  -0.008
  0.330  -0.061   0.019   0.035  -0.010
 -0.135   0.025  -0.008  -0.010   0.013


------------------------ aborting loop because EDIFF is reached ----------------------------------------


    CHARGE:  cpu time    0.0178: real time    0.0178
    FORLOC:  cpu time    0.0146: real time    0.0146
    FORNL :  cpu time    0.0210: real time    0.0210
    STRESS:  cpu time    0.1603: real time    0.1603
    FORCOR:  cpu time    0.1474: real time    0.1474
    FORHAR:  cpu time    0.0483: real time    0.0483
    MIXING:  cpu time    0.0061: real time    0.0061
    OFIELD:  cpu time    0.0000: real time    0.0000

  FORCE on cell =-STRESS in cart. coord.  units (eV):
  Direction    XX          YY          ZZ          XY          YZ          ZX
  --------------------------------------------------------------------------------------
  Alpha Z     0.23467     0.23467     0.23467
  Ewald      42.27122    40.94432    44.52998    -0.43082     1.23521     0.78297
  Hartree    94.26897    93.23122    96.25283     0.44382     0.49411     0.23007
  E(xc)     -27.09123   -27.08597   -27.10242     0.00263     0.00468     0.00467
  Local    -195.45767  -193.26989  -199.41405    -0.39077    -1.54016    -0.88729
  n-local   -15.63445   -15.59543   -15.72579     0.05550     0.00271     0.00052
  augment     0.12136     0.12295     0.11752     0.00368    -0.00133    -0.00080
  Kinetic   100.32232   100.05554   100.94425    -0.15922    -0.23692    -0.21495
  Fock        0.00000     0.00000     0.00000     0.00000     0.00000     0.00000
  -------------------------------------------------------------------------------------
  Total      -0.96480    -1.36258    -0.16301    -0.47519    -0.04169    -0.08483
  in kB      -1.49739    -2.11475    -0.25300    -0.73750    -0.06471    -0.13165
  external pressure =       -1.29 kB  Pullay stress =        0.00 kB

  kinetic pressure (ideal gas correction) =      0.00 kB
  total pressure  =     -1.29 kB
  Total+kin.    -1.496      -2.111      -0.253      -0.735      -0.064      -0.132

 VOLUME and BASIS-vectors are now :
 -----------------------------------------------------------------------------
  energy-cutoff  :      400.00
  volume of cell :     1032.32
      direct lattice vectors                 reciprocal lattice vectors
    10.143409265  0.000000000  0.000000000     0.098586183 -0.002198259  0.000057505
     0.228585141 10.251447252  0.000000000     0.000000000  0.097547202 -0.001567518
    -0.002233599  0.159529885  9.927601472     0.000000000  0.000000000  0.100729265

  length of vectors
    10.143409265 10.253995413  9.928883409     0.098610705  0.097559796  0.100729265


 FORCES acting on ions
    electron-ion (+dipol)            ewald-force                    non-local-force                 convergence-correction
 -----------------------------------------------------------------------------------------------
   -.164E+02 0.301E+02 0.401E+02   0.182E+02 -.333E+02 -.445E+02   -.172E+01 0.319E+01 0.420E+01   -.131E-03 0.641E-03 0.372E-03
   0.517E+02 -.657E+01 0.316E+01   -.567E+02 0.724E+01 -.345E+01   0.531E+01 -.662E+00 0.322E+00   0.436E-03 0.356E-03 -.184E-04
   -.232E+02 -.455E+02 0.100E+01   0.250E+02 0.490E+02 -.115E+01   -.227E+01 -.444E+01 0.727E-01   -.146E-03 0.981E-04 -.273E-04
   -.122E+02 0.243E+02 -.453E+02   0.135E+02 -.268E+02 0.501E+02   -.129E+01 0.255E+01 -.474E+01   -.697E-04 0.594E-03 -.489E-03
   -.565E-01 -.331E+01 0.982E+00   0.959E-01 0.389E+01 -.105E+01   0.111E+00 0.333E+00 0.117E+00   0.137E-03 0.985E-03 -.125E-03
 -----------------------------------------------------------------------------------------------
[...]
      5.69474      5.81220      4.39061         0.443097      0.864287     -0.065737
      5.45737      4.35380      5.36196        -0.047737      0.039128     -0.082187
      5.20774      4.86129      4.41759        -0.115642     -1.015257      0.105295
 -----------------------------------------------------------------------------------
    total drift:                                0.000077     -0.000027      0.000127


--------------------------------------------------------------------------------------------------------



  FREE ENERGIE OF THE ION-ELECTRON SYSTEM (eV)
  ---------------------------------------------------
  free  energy   TOTEN  =       -24.01465466 eV

  energy  without entropy=      -24.01465466  energy(sigma->0) =      -24.01465466
 
 d Force =-0.7465104E-02[-0.897E-02,-0.596E-02]  d Energy =-0.7451112E-02-0.140E-04
 d Force =-0.5897363E+00[-0.594E+00,-0.586E+00]  d Ewald  =-0.5897223E+00-0.140E-04


--------------------------------------------------------------------------------------------------------


    POTLOK:  cpu time    0.1424: real time    0.1424


--------------------------------------------------------------------------------------------------------


 stress matrix after NEB project (eV)
      0.07554      0.42513     -0.01680
      0.42513      0.35907     -0.05775
     -0.01680     -0.05775     -0.50816
  FORCES: max atom, RMS     1.027233    0.646320
  FORCE total and by dimension    1.445216    1.015257
  Stress total and by dimension    0.872680    0.508158
           RANDOM_SEED =         581409971               30                0
   IONSTEP:  cpu time    0.0002: real time    0.0002

  ENERGY OF THE ELECTRON-ION-THERMOSTAT SYSTEM (eV)
  ---------------------------------------------------
% ion-electron   TOTEN  =       -24.014655  see above
  kinetic energy EKIN   =         0.013110
  kin. lattice  EKIN_LAT=         0.000000  (temperature   25.36 K)
  nose potential ES     =         0.000000
  nose kinetic   EPS    =         0.000000
  ---------------------------------------------------
  total energy   ETOTAL =       -24.001545 eV

  maximum distance moved by ions :      0.59E-03

    WAVPRE:  cpu time    0.0493: real time    0.0493
    FEWALD:  cpu time    0.0007: real time    0.0007
    ORTHCH:  cpu time    0.0089: real time    0.0089
 Prediction of Wavefunctions ALPHA= 2.227 BETA=-1.268
     LOOP+:  cpu time    1.9492: real time    1.9494


--------------------------------------- Iteration     10(   1)  ---------------------------------------


    POTLOK:  cpu time    0.1432: real time    0.1432
    SETDIJ:  cpu time    0.0026: real time    0.0026
     EDDAV:  cpu time    0.1754: real time    0.1754
       DOS:  cpu time    0.0002: real time    0.0002
    CHARGE:  cpu time    0.0174: real time    0.0174
    MIXING:  cpu time    0.0050: real time    0.0050
    --------------------------------------------
      LOOP:  cpu time    0.3438: real time    0.3439

 eigenvalue-minimisations  :    80
 total energy-change (2. order) : 0.7058347E-02  (-0.5636546E-04)
 number of electron       8.0000000 magnetization 
 augmentation part        0.1878423 magnetization 

 Broyden mixing:
  rms(total) = 0.28619E-03    rms(broyden)= 0.28492E-03
  rms(prec ) = 0.30156E-03
  weight for this iteration     100.00

 Free energy of the ion-electron system (eV)
  ---------------------------------------------------
  alpha Z        PSCENC =         0.23466685
  Ewald energy   TEWEN  =       132.23172018
  -Hartree energ DENC   =      -287.70034818
  -exchange      EXHF   =         0.00000000
  -V(xc)+E(xc)   XCENC  =        24.84149414
  PAW double counting   =       480.43770496     -481.23305992
  entropy T*S    EENTRO =        -0.00000000
  eigenvalues    EBANDS =       -89.86152803
  atomic energy  EATOM  =       197.04175453
  Solvation  Ediel_sol  =         0.00000000
  ---------------------------------------------------
  free energy    TOTEN  =       -24.00759547 eV

  energy without entropy =      -24.00759547  energy(sigma->0) =      -24.00759547


--------------------------------------------------------------------------------------------------------




--------------------------------------- Iteration     10(   2)  ---------------------------------------


    POTLOK:  cpu time    0.1419: real time    0.1419
    SETDIJ:  cpu time    0.0027: real time    0.0027
    EDDIAG:  cpu time    0.0355: real time    0.0355
  RMM-DIIS:  cpu time    0.1518: real time    0.1518
    ORTHCH:  cpu time    0.0016: real time    0.0016
       DOS:  cpu time    0.0002: real time    0.0002
    CHARGE:  cpu time    0.0179: real time    0.0179
    MIXING:  cpu time    0.0050: real time    0.0050
    --------------------------------------------
      LOOP:  cpu time    0.3566: real time    0.3566

 eigenvalue-minimisations  :    60
 total energy-change (2. order) :-0.1597037E-05  (-0.1403270E-05)
 number of electron       8.0000000 magnetization 
 augmentation part        0.1878480 magnetization 

 Broyden mixing:
  rms(total) = 0.16139E-03    rms(broyden)= 0.16081E-03
  rms(prec ) = 0.17962E-03
  weight for this iteration     100.00

 eigenvalues of (default mixing * dielectric matrix)
  average eigenvalue GAMMA=   0.7355
  0.7355

 Free energy of the ion-electron system (eV)
  ---------------------------------------------------
  alpha Z        PSCENC =         0.23466685
  Ewald energy   TEWEN  =       132.23172018
  -Hartree energ DENC   =      -287.69909686
  -exchange      EXHF   =         0.00000000
  -V(xc)+E(xc)   XCENC  =        24.84141437
  PAW double counting   =       480.46823129     -481.26353225
  entropy T*S    EENTRO =        -0.00000000
  eigenvalues    EBANDS =       -89.86275518
  atomic energy  EATOM  =       197.04175453
  Solvation  Ediel_sol  =         0.00000000
  ---------------------------------------------------
  free energy    TOTEN  =       -24.00759707 eV

  energy without entropy =      -24.00759707  energy(sigma->0) =      -24.00759707


--------------------------------------------------------------------------------------------------------




--------------------------------------- Iteration     10(   3)  ---------------------------------------


    POTLOK:  cpu time    0.1424: real time    0.1424
    SETDIJ:  cpu time    0.0025: real time    0.0025
    EDDIAG:  cpu time    0.0354: real time    0.0354
  RMM-DIIS:  cpu time    0.1235: real time    0.1235
    ORTHCH:  cpu time    0.0016: real time    0.0016
       DOS:  cpu time    0.0002: real time    0.0002
    CHARGE:  cpu time    0.0182: real time    0.0182
    MIXING:  cpu time    0.0051: real time    0.0051
    --------------------------------------------
      LOOP:  cpu time    0.3288: real time    0.3289

 eigenvalue-minimisations  :    47
 total energy-change (2. order) :-0.1909502E-06  (-0.2743672E-07)
 number of electron       8.0000000 magnetization 
 augmentation part        0.1878485 magnetization 

 Broyden mixing:
  rms(total) = 0.12280E-03    rms(broyden)= 0.12276E-03
  rms(prec ) = 0.13548E-03
  weight for this iteration     100.00

 eigenvalues of (default mixing * dielectric matrix)
  average eigenvalue GAMMA=   1.5820
  1.1475  2.0166

 Free energy of the ion-electron system (eV)
  ---------------------------------------------------
  alpha Z        PSCENC =         0.23466685
  Ewald energy   TEWEN  =       132.23172018
  -Hartree energ DENC   =      -287.69856799
  -exchange      EXHF   =         0.00000000
  -V(xc)+E(xc)   XCENC  =        24.84140139
  PAW double counting   =       480.44915507     -481.24444048
  entropy T*S    EENTRO =        -0.00000000
  eigenvalues    EBANDS =       -89.86328681
  atomic energy  EATOM  =       197.04175453
  Solvation  Ediel_sol  =         0.00000000
  ---------------------------------------------------
  free energy    TOTEN  =       -24.00759726 eV

  energy without entropy =      -24.00759726  energy(sigma->0) =      -24.00759726


--------------------------------------------------------------------------------------------------------




--------------------------------------- Iteration     10(   4)  ---------------------------------------


    POTLOK:  cpu time    0.1432: real time    0.1432
    SETDIJ:  cpu time    0.0026: real time    0.0026
    EDDIAG:  cpu time    0.0360: real time    0.0360
  RMM-DIIS:  cpu time    0.1225: real time    0.1225
    ORTHCH:  cpu time    0.0016: real time    0.0016
       DOS:  cpu time    0.0002: real time    0.0002
    --------------------------------------------
      LOOP:  cpu time    0.3061: real time    0.3061

 eigenvalue-minimisations  :    48
 total energy-change (2. order) :-0.4233604E-06  (-0.1590717E-07)
 number of electron       8.0000000 magnetization 
 augmentation part        0.1878485 magnetization 

 Free energy of the ion-electron system (eV)
  ---------------------------------------------------
  alpha Z        PSCENC =         0.23466685
  Ewald energy   TEWEN  =       132.23172018
  -Hartree energ DENC   =      -287.69772394
  -exchange      EXHF   =         0.00000000
  -V(xc)+E(xc)   XCENC  =        24.84139153
  PAW double counting   =       480.39710429     -481.19236227
  entropy T*S    EENTRO =        -0.00000000
  eigenvalues    EBANDS =       -89.86414886
  atomic energy  EATOM  =       197.04175453
  Solvation  Ediel_sol  =         0.00000000
  ---------------------------------------------------
  free energy    TOTEN  =       -24.00759769 eV

  energy without entropy =      -24.00759769  energy(sigma->0) =      -24.00759769


--------------------------------------------------------------------------------------------------------




 average (electrostatic) potential at core
  the test charge radii are     0.5201  0.6991
  (the norm of the test charge is              1.0000)
       1 -41.4529       2 -41.5579       3 -41.7769       4 -41.4435       5 -57.9120
 
 
 
 E-fermi :  -8.2713     XC(G=0):  -0.6685     alpha+bet : -0.2041


 k-point     1 :       0.2500    0.2500    0.2500
  band No.  band energies     occupation 
      1     -16.9570      2.00000
      2      -9.4288      2.00000
      3      -9.3065      2.00000
      4      -9.2395      2.00000
      5      -0.3075      0.00000
      6       0.5744      0.00000
      7       0.6714      0.00000
      8       0.7032      0.00000

 k-point     2 :      -0.2500    0.2500    0.2500
  band No.  band energies     occupation 
      1     -16.9571      2.00000
      2      -9.4289      2.00000
      3      -9.3066      2.00000
      4      -9.2395      2.00000
      5      -0.3032      0.00000
      6       0.5543      0.00000
      7       0.6648      0.00000
      8       0.6955      0.00000

 k-point     3 :       0.2500   -0.2500    0.2500
  band No.  band energies     occupation 
      1     -16.9570      2.00000
      2      -9.4289      2.00000
      3      -9.3067      2.00000
      4      -9.2396      2.00000
      5      -0.3001      0.00000
      6       0.5481      0.00000
      7       0.6615      0.00000
      8       0.6851      0.00000

 k-point     4 :      -0.2500   -0.2500    0.2500
  band No.  band energies     occupation 
      1     -16.9571      2.00000
      2      -9.4289      2.00000
      3      -9.3066      2.00000
      4      -9.2396      2.00000
      5      -0.3046      0.00000
      6       0.5662      0.00000
      7       0.6676      0.00000
      8       0.6942      0.00000


--------------------------------------------------------------------------------------------------------


 soft charge-density along one line, spin component           1
         0         1         2         3         4         5         6         7         8         9
 total charge-density along one line
 
 pseudopotential strength for first ion, spin component:           1
 -2.341  -4.033  -0.001  -0.001   0.001
 -4.033  -6.863  -0.003  -0.004   0.002
 -0.001  -0.003  -0.338   0.002  -0.001
 -0.001  -0.004   0.002  -0.336  -0.001
  0.001   0.002  -0.001  -0.001  -0.339
 total augmentation occupancy for first ion, spin component:           1
  3.530  -0.636   0.241   0.325  -0.132
 -0.636   0.128  -0.044  -0.060   0.025
  0.241  -0.044   0.023   0.018  -0.008
  0.325  -0.060   0.018   0.034  -0.010
 -0.132   0.025  -0.008  -0.010   0.013


------------------------ aborting loop because EDIFF is reached ----------------------------------------


    CHARGE:  cpu time    0.0180: real time    0.0180
    FORLOC:  cpu time    0.0146: real time    0.0146
    FORNL :  cpu time    0.0211: real time    0.0211
    STRESS:  cpu time    0.1609: real time    0.1609
    FORCOR:  cpu time    0.1466: real time    0.1467
    FORHAR:  cpu time    0.0474: real time    0.0474
    MIXING:  cpu time    0.0049: real time    0.0049
    OFIELD:  cpu time    0.0000: real time    0.0000

  FORCE on cell =-STRESS in cart. coord.  units (eV):
  Direction    XX          YY          ZZ          XY          YZ          ZX
  --------------------------------------------------------------------------------------
  Alpha Z     0.23467     0.23467     0.23467
  Ewald      43.98501    43.15223    45.09445     1.09348     0.52025     0.14344
  Hartree    95.46623    93.99800    98.23459     0.15020     0.34891     0.03299
  E(xc)     -27.31859   -27.32051   -27.31668    -0.00297     0.00172     0.00078
  Local    -197.94698  -195.33497  -202.53025    -0.81887    -0.83932    -0.14772
  n-local   -16.13499   -16.17236   -16.06286    -0.05134     0.00607    -0.00127
  augment     0.11005     0.10611     0.11738    -0.00486    -0.00005    -0.00022
  Kinetic   101.79105   101.89185   101.69658     0.15160    -0.09350    -0.03397
  Fock        0.00000     0.00000     0.00000     0.00000     0.00000     0.00000
  -------------------------------------------------------------------------------------
  Total       0.18644     0.55502    -0.53213     0.51725    -0.05593    -0.00597
  in kB       0.28936     0.86140    -0.82588     0.80278    -0.08680    -0.00927
  external pressure =        0.11 kB  Pullay stress =        0.00 kB

  kinetic pressure (ideal gas correction) =      0.01 kB
  total pressure  =      0.12 kB
  Total+kin.     0.297       0.881      -0.823       0.813      -0.083      -0.007

 VOLUME and BASIS-vectors are now :
 -----------------------------------------------------------------------------
  energy-cutoff  :      400.00
  volume of cell :     1032.32
      direct lattice vectors                 reciprocal lattice vectors
    10.143409265  0.000000000  0.000000000     0.098586183 -0.002198259  0.000057505
     0.228585141 10.251447252  0.000000000     0.000000000  0.097547202 -0.001567518
    -0.002233599  0.159529885  9.927601472     0.000000000  0.000000000  0.100729265

  length of vectors
    10.143409265 10.253995413  9.928883409     0.098610705  0.097559796  0.100729265


 FORCES acting on ions
    electron-ion (+dipol)            ewald-force                    non-local-force                 convergence-correction
 -----------------------------------------------------------------------------------------------
   -.165E+02 0.299E+02 0.403E+02   0.181E+02 -.329E+02 -.444E+02   -.169E+01 0.308E+01 0.414E+01   0.285E-04 -.643E-04 -.993E-04
   0.529E+02 -.663E+01 0.317E+01   -.588E+02 0.735E+01 -.353E+01   0.558E+01 -.692E+00 0.331E+00   -.130E-03 0.199E-04 -.431E-05
   -.248E+02 -.485E+02 0.150E+01   0.281E+02 0.550E+02 -.171E+01   -.275E+01 -.536E+01 0.155E+00   0.419E-04 0.114E-03 -.595E-05
   -.119E+02 0.244E+02 -.453E+02   0.131E+02 -.268E+02 0.499E+02   -.123E+01 0.250E+01 -.465E+01   0.149E-04 -.506E-04 0.109E-03
   0.436E+00 0.198E+01 0.219E+00   -.546E+00 -.260E+01 -.206E+00   -.517E-01 -.595E+00 0.933E-01   -.879E-04 0.261E-04 0.578E-05
 -----------------------------------------------------------------------------------------------
   0.140E+00 0.107E+01 -.716E-01   0.533E-14 0.000E+00 0.708E-14   -.140E+00 -.107E+01 0.717E-01   -.133E-03 0.450E-04 0.534E-05
 
 
 POSITION                                       TOTAL-FORCE (eV/Angst)
 -----------------------------------------------------------------------------------
      5.55042      4.23910      3.57722        -0.035930      0.074171      0.071178
      4.13057      4.99567      4.35357        -0.310223      0.029836     -0.021400
      5.69199      5.80702      4.38913         0.550541      1.073144     -0.061368
      5.45650      4.35400      5.36264        -0.042697      0.040206     -0.095360
      5.20785      4.86155      4.41772        -0.161566     -1.217438      0.107031
 -----------------------------------------------------------------------------------
    total drift:                                0.000125     -0.000082      0.000079


--------------------------------------------------------------------------------------------------------



  FREE ENERGIE OF THE ION-ELECTRON SYSTEM (eV)
  ---------------------------------------------------
  free  energy   TOTEN  =       -24.00759769 eV

  energy  without entropy=      -24.00759769  energy(sigma->0) =      -24.00759769
 
 d Force =-0.7062707E-02[-0.786E-02,-0.626E-02]  d Energy =-0.7056978E-02-0.573E-05
 d Force =-0.4437178E+00[-0.446E+00,-0.442E+00]  d Ewald  =-0.4437131E+00-0.474E-05


--------------------------------------------------------------------------------------------------------


    POTLOK:  cpu time    0.1447: real time    0.1447


--------------------------------------------------------------------------------------------------------


 stress matrix after NEB project (eV)
      0.18644      0.51725     -0.00597
      0.51725      0.55502     -0.05593
     -0.00597     -0.05593     -0.53213
  FORCES: max atom, RMS     1.232767    0.787425
  FORCE total and by dimension    1.760737    1.217438
  Stress total and by dimension    1.080456    0.555016
           RANDOM_SEED =         581409971               30                0
   IONSTEP:  cpu time    0.0002: real time    0.0002

  ENERGY OF THE ELECTRON-ION-THERMOSTAT SYSTEM (eV)
  ---------------------------------------------------
% ion-electron   TOTEN  =       -24.007598  see above
  kinetic energy EKIN   =         0.006224
  kin. lattice  EKIN_LAT=         0.000000  (temperature   12.04 K)
  nose potential ES     =         0.000000
  nose kinetic   EPS    =         0.000000
  ---------------------------------------------------
  total energy   ETOTAL =       -24.001374 eV

  maximum distance moved by ions :      0.33E-03


 mean value of Nose-termostat <S>:     1.000 mean value of <T> :    28.644
 mean temperature <T/S>/<1/S>  :    28.644

    WAVPRE:  cpu time    0.0530: real time    0.0530
    FEWALD:  cpu time    0.0003: real time    0.0003
    ORTHCH:  cpu time    0.0089: real time    0.0089
 Prediction of Wavefunctions ALPHA= 2.139 BETA=-1.167
    POTLOK:  cpu time    0.1462: real time    0.1462
    EDDIAG:  cpu time    0.0362: real time    0.0362
     LOOP+:  cpu time    2.1430: real time    2.1432
    4ORBIT:  cpu time    0.0000: real time    0.0009

 total amount of memory used by VASP MPI-rank0    56698. kBytes
=======================================================================

   base      :      30000. kBytes
   nonl-proj :       2780. kBytes
   fftplans  :       8576. kBytes
   grid      :      13527. kBytes
   one-center:          6. kBytes
   wavefun   :       1809. kBytes
 
  
  
 General timing and accounting informations for this job:
 ========================================================
  
                  Total CPU time used (sec):       29.170
                            User time (sec):       26.534
                          System time (sec):        2.636
                         Elapsed time (sec):       29.612
  
                   Maximum memory used (kb):      177180.
                   Average memory used (kb):           0.
  
                          Minor page faults:       261597
                          Major page faults:           86
                 Voluntary context switches:          474
