unknown system                          
           1
    10.143409    0.000000    0.000000
     0.228585   10.251447    0.000000
    -0.002234    0.159530    9.927601
   H    C 
   4   1
Direct configuration=     1
   0.53769456  0.40716556  0.36127033
   0.39446268  0.48040982  0.43829110
   0.55168656  0.56559915  0.44285466
   0.52905373  0.41634018  0.53941470
   0.50290420  0.46687026  0.44493739
Direct configuration=     2
   0.53770942  0.40717935  0.36123575
   0.39454477  0.48040982  0.43829915
   0.55156570  0.56535818  0.44283908
   0.52904733  0.41633542  0.53944601
   0.50290672  0.46688957  0.44493829
Direct configuration=     3
   0.53773779  0.40720700  0.36116907
   0.39470222  0.48041010  0.43831507
   0.55133152  0.56489234  0.44280679
   0.52903424  0.41632644  0.53950630
   0.50291184  0.46692678  0.44494018
Direct configuration=     4
   0.53777760  0.40724993  0.36107508
   0.39492348  0.48041124  0.43833796
   0.55099992  0.56423349  0.44275780
   0.52901356  0.41631488  0.53959042
   0.50291943  0.46697893  0.44494317
Direct configuration=     5
   0.53782613  0.40730971  0.36095998
   0.39519190  0.48041410  0.43836653
   0.55059434  0.56342859  0.44269211
   0.52898418  0.41630275  0.53969171
   0.50292926  0.46704173  0.44494741
Direct configuration=     6
   0.53788005  0.40738805  0.36083131
   0.39548717  0.48041963  0.43839915
   0.55014491  0.56253796  0.44260972
   0.52894490  0.41629245  0.53980212
   0.50294087  0.46710976  0.44495308
Direct configuration=     7
   0.53793584  0.40748634  0.36069692
   0.39578656  0.48042891  0.43843396
   0.54968703  0.56163243  0.44251061
   0.52889465  0.41628641  0.53991326
   0.50295361  0.46717670  0.44496037
Direct configuration=     8
   0.53799004  0.40760540  0.36056448
   0.39606687  0.48044300  0.43846899
   0.54925894  0.56078843  0.44239483
   0.52883267  0.41628690  0.54001695
   0.50296656  0.46723584  0.44496948
Direct configuration=     9
   0.53803952  0.40774520  0.36044074
   0.39630613  0.48046286  0.43850228
   0.54889843  0.56008155  0.44226256
   0.52875870  0.41629575  0.54010610
   0.50297869  0.46728066  0.44498061
Direct configuration=    10
   0.53808176  0.40790458  0.36033098
   0.39648554  0.48048928  0.43853198
   0.54863869  0.55957829  0.44211432
   0.52867316  0.41631411  0.54017527
   0.50298899  0.46730557  0.44499385
