   5   5   0   0
  0.1985492E+03  0.1025338E-08  0.9957528E-09  0.9726342E-09  0.5000000E-15
  1.000000000000000E-004
  CAR 
 unknown system                          
      2.71792537    -18.86732350  301     -8.21846019      1.00000000
    -18.867  0.0000E+00  0.0000E+00
    -18.795  0.0000E+00  0.0000E+00
    -18.723  0.0000E+00  0.0000E+00
    -18.651  0.0000E+00  0.0000E+00
    -18.580  0.0000E+00  0.0000E+00
    -18.508  0.0000E+00  0.0000E+00
    -18.436  0.0000E+00  0.0000E+00
    -18.364  0.0000E+00  0.0000E+00
    -18.292  0.0000E+00  0.0000E+00
    -18.220  0.0000E+00  0.0000E+00
    -18.148  0.0000E+00  0.0000E+00
    -18.076  0.0000E+00  0.0000E+00
    -18.004  0.1310E-13  0.9437E-15
    -17.932  0.7313E-12  0.5360E-13
    -17.860  0.3150E-10  0.2322E-11
    -17.788  0.1051E-08  0.7798E-10
    -17.716  0.2713E-07  0.2032E-08
    -17.644  0.5425E-06  0.4110E-07
    -17.572  0.8403E-05  0.6462E-06
    -17.500  0.1008E-03  0.7908E-05
    -17.428  0.9377E-03  0.7543E-04
    -17.356  0.6758E-02  0.5621E-03
    -17.284  0.3776E-01  0.3281E-02
    -17.212  0.1636E+00  0.1506E-01
    -17.141  0.5496E+00  0.5464E-01
    -17.069  0.1432E+01  0.1578E+00
    -16.997  0.2896E+01  0.3663E+00
    -16.925  0.4542E+01  0.6934E+00
    -16.853  0.5528E+01  0.1092E+01
    -16.781  0.5221E+01  0.1467E+01
    -16.709  0.3825E+01  0.1743E+01
    -16.637  0.2175E+01  0.1900E+01
    -16.565  0.9592E+00  0.1969E+01
    -16.493  0.3282E+00  0.1992E+01
    -16.421  0.8710E-01  0.1998E+01
    -16.349  0.1793E-01  0.2000E+01
    -16.277  0.2861E-02  0.2000E+01
    -16.205  0.3539E-03  0.2000E+01
    -16.133  0.3394E-04  0.2000E+01
    -16.061  0.2522E-05  0.2000E+01
    -15.989  0.1452E-06  0.2000E+01
    -15.917  0.6472E-08  0.2000E+01
    -15.845  0.2235E-09  0.2000E+01
    -15.773  0.5974E-11  0.2000E+01
    -15.701  0.1257E-12  0.2000E+01
    -15.630  0.3086E-15  0.2000E+01
    -15.558  0.0000E+00  0.2000E+01
    -15.486  0.0000E+00  0.2000E+01
    -15.414  0.0000E+00  0.2000E+01
    -15.342  0.0000E+00  0.2000E+01
    -15.270  0.0000E+00  0.2000E+01
    -15.198  0.0000E+00  0.2000E+01
    -15.126  0.0000E+00  0.2000E+01
    -15.054  0.0000E+00  0.2000E+01
    -14.982  0.0000E+00  0.2000E+01
    -14.910  0.0000E+00  0.2000E+01
    -14.838  0.0000E+00  0.2000E+01
    -14.766  0.0000E+00  0.2000E+01
    -14.694  0.0000E+00  0.2000E+01
    -14.622  0.0000E+00  0.2000E+01
    -14.550  0.0000E+00  0.2000E+01
    -14.478  0.0000E+00  0.2000E+01
    -14.406  0.0000E+00  0.2000E+01
    -14.334  0.0000E+00  0.2000E+01
    -14.262  0.0000E+00  0.2000E+01
    -14.191  0.0000E+00  0.2000E+01
    -14.119  0.0000E+00  0.2000E+01
    -14.047  0.0000E+00  0.2000E+01
    -13.975  0.0000E+00  0.2000E+01
    -13.903  0.0000E+00  0.2000E+01
    -13.831  0.0000E+00  0.2000E+01
    -13.759  0.0000E+00  0.2000E+01
    -13.687  0.0000E+00  0.2000E+01
    -13.615  0.0000E+00  0.2000E+01
    -13.543  0.0000E+00  0.2000E+01
    -13.471  0.0000E+00  0.2000E+01
    -13.399  0.0000E+00  0.2000E+01
    -13.327  0.0000E+00  0.2000E+01
    -13.255  0.0000E+00  0.2000E+01
    -13.183  0.0000E+00  0.2000E+01
    -13.111  0.0000E+00  0.2000E+01
    -13.039  0.0000E+00  0.2000E+01
    -12.967  0.0000E+00  0.2000E+01
    -12.895  0.0000E+00  0.2000E+01
    -12.823  0.0000E+00  0.2000E+01
    -12.752  0.0000E+00  0.2000E+01
    -12.680  0.0000E+00  0.2000E+01
    -12.608  0.0000E+00  0.2000E+01
    -12.536  0.0000E+00  0.2000E+01
    -12.464  0.0000E+00  0.2000E+01
    -12.392  0.0000E+00  0.2000E+01
    -12.320  0.0000E+00  0.2000E+01
    -12.248  0.0000E+00  0.2000E+01
    -12.176  0.0000E+00  0.2000E+01
    -12.104  0.0000E+00  0.2000E+01
    -12.032  0.0000E+00  0.2000E+01
    -11.960  0.0000E+00  0.2000E+01
    -11.888  0.0000E+00  0.2000E+01
    -11.816  0.0000E+00  0.2000E+01
    -11.744  0.0000E+00  0.2000E+01
    -11.672  0.0000E+00  0.2000E+01
    -11.600  0.0000E+00  0.2000E+01
    -11.528  0.0000E+00  0.2000E+01
    -11.456  0.0000E+00  0.2000E+01
    -11.384  0.0000E+00  0.2000E+01
    -11.312  0.0000E+00  0.2000E+01
    -11.241  0.0000E+00  0.2000E+01
    -11.169  0.0000E+00  0.2000E+01
    -11.097  0.0000E+00  0.2000E+01
    -11.025  0.0000E+00  0.2000E+01
    -10.953  0.0000E+00  0.2000E+01
    -10.881  0.0000E+00  0.2000E+01
    -10.809  0.0000E+00  0.2000E+01
    -10.737  0.0000E+00  0.2000E+01
    -10.665  0.0000E+00  0.2000E+01
    -10.593  0.3086E-15  0.2000E+01
    -10.521  0.2106E-13  0.2000E+01
    -10.449  0.1055E-11  0.2000E+01
    -10.377  0.4117E-10  0.2000E+01
    -10.305  0.1251E-08  0.2000E+01
    -10.233  0.2965E-07  0.2000E+01
    -10.161  0.5488E-06  0.2000E+01
    -10.089  0.7954E-05  0.2000E+01
    -10.017  0.9050E-04  0.2000E+01
     -9.945  0.8112E-03  0.2000E+01
     -9.873  0.5749E-02  0.2000E+01
     -9.802  0.3236E-01  0.2003E+01
     -9.730  0.1454E+00  0.2013E+01
     -9.658  0.5241E+00  0.2051E+01
     -9.586  0.1523E+01  0.2161E+01
     -9.514  0.3588E+01  0.2419E+01
     -9.442  0.6880E+01  0.2914E+01
     -9.370  0.1079E+02  0.3691E+01
     -9.298  0.1388E+02  0.4690E+01
     -9.226  0.1468E+02  0.5748E+01
     -9.154  0.1279E+02  0.6669E+01
     -9.082  0.9161E+01  0.7329E+01
     -9.010  0.5372E+01  0.7715E+01
     -8.938  0.2564E+01  0.7900E+01
     -8.866  0.9890E+00  0.7971E+01
     -8.794  0.3062E+00  0.7993E+01
     -8.722  0.7559E-01  0.7999E+01
     -8.650  0.1480E-01  0.8000E+01
     -8.578  0.2286E-02  0.8000E+01
     -8.506  0.2779E-03  0.8000E+01
     -8.434  0.2649E-04  0.8000E+01
     -8.363  0.1977E-05  0.8000E+01
     -8.291  0.1153E-06  0.8000E+01
     -8.219  0.5244E-08  0.8000E+01
     -8.147  0.1860E-09  0.8000E+01
     -8.075  0.5135E-11  0.8000E+01
     -8.003  0.1108E-12  0.8000E+01
     -7.931  0.1234E-14  0.8000E+01
     -7.859  0.0000E+00  0.8000E+01
     -7.787  0.0000E+00  0.8000E+01
     -7.715  0.0000E+00  0.8000E+01
     -7.643  0.0000E+00  0.8000E+01
     -7.571  0.0000E+00  0.8000E+01
     -7.499  0.0000E+00  0.8000E+01
     -7.427  0.0000E+00  0.8000E+01
     -7.355  0.0000E+00  0.8000E+01
     -7.283  0.0000E+00  0.8000E+01
     -7.211  0.0000E+00  0.8000E+01
     -7.139  0.0000E+00  0.8000E+01
     -7.067  0.0000E+00  0.8000E+01
     -6.995  0.0000E+00  0.8000E+01
     -6.923  0.0000E+00  0.8000E+01
     -6.852  0.0000E+00  0.8000E+01
     -6.780  0.0000E+00  0.8000E+01
     -6.708  0.0000E+00  0.8000E+01
     -6.636  0.0000E+00  0.8000E+01
     -6.564  0.0000E+00  0.8000E+01
     -6.492  0.0000E+00  0.8000E+01
     -6.420  0.0000E+00  0.8000E+01
     -6.348  0.0000E+00  0.8000E+01
     -6.276  0.0000E+00  0.8000E+01
     -6.204  0.0000E+00  0.8000E+01
     -6.132  0.0000E+00  0.8000E+01
     -6.060  0.0000E+00  0.8000E+01
     -5.988  0.0000E+00  0.8000E+01
     -5.916  0.0000E+00  0.8000E+01
     -5.844  0.0000E+00  0.8000E+01
     -5.772  0.0000E+00  0.8000E+01
     -5.700  0.0000E+00  0.8000E+01
     -5.628  0.0000E+00  0.8000E+01
     -5.556  0.0000E+00  0.8000E+01
     -5.484  0.0000E+00  0.8000E+01
     -5.413  0.0000E+00  0.8000E+01
     -5.341  0.0000E+00  0.8000E+01
     -5.269  0.0000E+00  0.8000E+01
     -5.197  0.0000E+00  0.8000E+01
     -5.125  0.0000E+00  0.8000E+01
     -5.053  0.0000E+00  0.8000E+01
     -4.981  0.0000E+00  0.8000E+01
     -4.909  0.0000E+00  0.8000E+01
     -4.837  0.0000E+00  0.8000E+01
     -4.765  0.0000E+00  0.8000E+01
     -4.693  0.0000E+00  0.8000E+01
     -4.621  0.0000E+00  0.8000E+01
     -4.549  0.0000E+00  0.8000E+01
     -4.477  0.0000E+00  0.8000E+01
     -4.405  0.0000E+00  0.8000E+01
     -4.333  0.0000E+00  0.8000E+01
     -4.261  0.0000E+00  0.8000E+01
     -4.189  0.0000E+00  0.8000E+01
     -4.117  0.0000E+00  0.8000E+01
     -4.045  0.0000E+00  0.8000E+01
     -3.974  0.0000E+00  0.8000E+01
     -3.902  0.0000E+00  0.8000E+01
     -3.830  0.0000E+00  0.8000E+01
     -3.758  0.0000E+00  0.8000E+01
     -3.686  0.0000E+00  0.8000E+01
     -3.614  0.0000E+00  0.8000E+01
     -3.542  0.0000E+00  0.8000E+01
     -3.470  0.0000E+00  0.8000E+01
     -3.398  0.0000E+00  0.8000E+01
     -3.326  0.0000E+00  0.8000E+01
     -3.254  0.0000E+00  0.8000E+01
     -3.182  0.0000E+00  0.8000E+01
     -3.110  0.0000E+00  0.8000E+01
     -3.038  0.0000E+00  0.8000E+01
     -2.966  0.0000E+00  0.8000E+01
     -2.894  0.0000E+00  0.8000E+01
     -2.822  0.0000E+00  0.8000E+01
     -2.750  0.0000E+00  0.8000E+01
     -2.678  0.0000E+00  0.8000E+01
     -2.606  0.0000E+00  0.8000E+01
     -2.534  0.0000E+00  0.8000E+01
     -2.463  0.0000E+00  0.8000E+01
     -2.391  0.0000E+00  0.8000E+01
     -2.319  0.0000E+00  0.8000E+01
     -2.247  0.0000E+00  0.8000E+01
     -2.175  0.0000E+00  0.8000E+01
     -2.103  0.0000E+00  0.8000E+01
     -2.031  0.0000E+00  0.8000E+01
     -1.959  0.0000E+00  0.8000E+01
     -1.887  0.0000E+00  0.8000E+01
     -1.815  0.0000E+00  0.8000E+01
     -1.743  0.0000E+00  0.8000E+01
     -1.671  0.0000E+00  0.8000E+01
     -1.599  0.0000E+00  0.8000E+01
     -1.527  0.0000E+00  0.8000E+01
     -1.455  0.1106E-13  0.8000E+01
     -1.383  0.6128E-12  0.8000E+01
     -1.311  0.2665E-10  0.8000E+01
     -1.239  0.8974E-09  0.8000E+01
     -1.167  0.2340E-07  0.8000E+01
     -1.095  0.4728E-06  0.8000E+01
     -1.024  0.7401E-05  0.8000E+01
     -0.952  0.8979E-04  0.8000E+01
     -0.880  0.8444E-03  0.8000E+01
     -0.808  0.6156E-02  0.8001E+01
     -0.736  0.3481E-01  0.8003E+01
     -0.664  0.1526E+00  0.8014E+01
     -0.592  0.5193E+00  0.8051E+01
     -0.520  0.1371E+01  0.8150E+01
     -0.448  0.2807E+01  0.8352E+01
     -0.376  0.4462E+01  0.8674E+01
     -0.304  0.5504E+01  0.9070E+01
     -0.232  0.5268E+01  0.9449E+01
     -0.160  0.3914E+01  0.9731E+01
     -0.088  0.2257E+01  0.9894E+01
     -0.016  0.1010E+01  0.9966E+01
      0.056  0.3549E+00  0.9992E+01
      0.128  0.1218E+00  0.1000E+02
      0.200  0.1510E+00  0.1001E+02
      0.272  0.4996E+00  0.1005E+02
      0.344  0.1492E+01  0.1015E+02
      0.415  0.3596E+01  0.1041E+02
      0.487  0.7003E+01  0.1092E+02
      0.559  0.1110E+02  0.1172E+02
      0.631  0.1435E+02  0.1275E+02
      0.703  0.1514E+02  0.1384E+02
      0.775  0.1296E+02  0.1477E+02
      0.847  0.8937E+01  0.1542E+02
      0.919  0.4930E+01  0.1577E+02
      0.991  0.2160E+01  0.1593E+02
      1.063  0.7472E+00  0.1598E+02
      1.135  0.2033E+00  0.1600E+02
      1.207  0.4334E-01  0.1600E+02
      1.279  0.7225E-02  0.1600E+02
      1.351  0.9403E-03  0.1600E+02
      1.423  0.9539E-04  0.1600E+02
      1.495  0.7536E-05  0.1600E+02
      1.567  0.4633E-06  0.1600E+02
      1.639  0.2214E-07  0.1600E+02
      1.711  0.8222E-09  0.1600E+02
      1.783  0.2371E-10  0.1600E+02
      1.855  0.5309E-12  0.1600E+02
      1.926  0.9019E-14  0.1600E+02
      1.998  0.0000E+00  0.1600E+02
      2.070  0.0000E+00  0.1600E+02
      2.142  0.0000E+00  0.1600E+02
      2.214  0.0000E+00  0.1600E+02
      2.286  0.0000E+00  0.1600E+02
      2.358  0.0000E+00  0.1600E+02
      2.430  0.0000E+00  0.1600E+02
      2.502  0.0000E+00  0.1600E+02
      2.574  0.0000E+00  0.1600E+02
      2.646  0.0000E+00  0.1600E+02
      2.718  0.0000E+00  0.1600E+02
      2.72001746    -18.86620701  301     -8.21686240      1.00000000
    -18.866  0.0000E+00  0.0000E+00
    -18.794  0.0000E+00  0.0000E+00
    -18.722  0.0000E+00  0.0000E+00
    -18.650  0.0000E+00  0.0000E+00
    -18.578  0.0000E+00  0.0000E+00
    -18.506  0.0000E+00  0.0000E+00
    -18.434  0.0000E+00  0.0000E+00
    -18.363  0.0000E+00  0.0000E+00
    -18.291  0.0000E+00  0.0000E+00
    -18.219  0.0000E+00  0.0000E+00
    -18.147  0.0000E+00  0.0000E+00
    -18.075  0.0000E+00  0.0000E+00
    -18.003  0.1234E-14  0.8882E-16
    -17.931  0.7032E-13  0.5149E-14
    -17.859  0.3026E-11  0.2228E-12
    -17.787  0.1009E-09  0.7486E-11
    -17.715  0.2608E-08  0.1951E-09
    -17.643  0.5220E-07  0.3951E-08
    -17.571  0.8097E-06  0.6221E-07
    -17.499  0.9734E-05  0.7626E-06
    -17.427  0.9071E-04  0.7290E-05
    -17.355  0.6555E-03  0.5445E-04
    -17.283  0.3673E-02  0.3188E-03
    -17.211  0.1597E-01  0.1468E-02
    -17.139  0.5385E-01  0.5343E-02
    -17.067  0.1409E+00  0.1548E-01
    -16.995  0.2862E+00  0.3608E-01
    -16.923  0.4512E+00  0.6854E-01
    -16.851  0.5520E+00  0.1083E+00
    -16.780  0.5242E+00  0.1460E+00
    -16.708  0.3864E+00  0.1738E+00
    -16.636  0.2211E+00  0.1897E+00
    -16.564  0.9817E-01  0.1968E+00
    -16.492  0.3383E-01  0.1992E+00
    -16.420  0.9045E-02  0.1998E+00
    -16.348  0.1876E-02  0.2000E+00
    -16.276  0.3018E-03  0.2000E+00
    -16.204  0.3766E-04  0.2000E+00
    -16.132  0.3642E-05  0.2000E+00
    -16.060  0.2731E-06  0.2000E+00
    -15.988  0.1587E-07  0.2000E+00
    -15.916  0.7145E-09  0.2000E+00
    -15.844  0.2492E-10  0.2000E+00
    -15.772  0.6732E-12  0.2000E+00
    -15.700  0.1420E-13  0.2000E+00
    -15.628  0.0000E+00  0.2000E+00
    -15.556  0.0000E+00  0.2000E+00
    -15.484  0.0000E+00  0.2000E+00
    -15.412  0.0000E+00  0.2000E+00
    -15.340  0.0000E+00  0.2000E+00
    -15.269  0.0000E+00  0.2000E+00
    -15.197  0.0000E+00  0.2000E+00
    -15.125  0.0000E+00  0.2000E+00
    -15.053  0.0000E+00  0.2000E+00
    -14.981  0.0000E+00  0.2000E+00
    -14.909  0.0000E+00  0.2000E+00
    -14.837  0.0000E+00  0.2000E+00
    -14.765  0.0000E+00  0.2000E+00
    -14.693  0.0000E+00  0.2000E+00
    -14.621  0.0000E+00  0.2000E+00
    -14.549  0.0000E+00  0.2000E+00
    -14.477  0.0000E+00  0.2000E+00
    -14.405  0.0000E+00  0.2000E+00
    -14.333  0.0000E+00  0.2000E+00
    -14.261  0.0000E+00  0.2000E+00
    -14.189  0.0000E+00  0.2000E+00
    -14.117  0.0000E+00  0.2000E+00
    -14.045  0.0000E+00  0.2000E+00
    -13.973  0.0000E+00  0.2000E+00
    -13.901  0.0000E+00  0.2000E+00
    -13.829  0.0000E+00  0.2000E+00
    -13.757  0.0000E+00  0.2000E+00
    -13.686  0.0000E+00  0.2000E+00
    -13.614  0.0000E+00  0.2000E+00
    -13.542  0.0000E+00  0.2000E+00
    -13.470  0.0000E+00  0.2000E+00
    -13.398  0.0000E+00  0.2000E+00
    -13.326  0.0000E+00  0.2000E+00
    -13.254  0.0000E+00  0.2000E+00
    -13.182  0.0000E+00  0.2000E+00
    -13.110  0.0000E+00  0.2000E+00
    -13.038  0.0000E+00  0.2000E+00
    -12.966  0.0000E+00  0.2000E+00
    -12.894  0.0000E+00  0.2000E+00
    -12.822  0.0000E+00  0.2000E+00
    -12.750  0.0000E+00  0.2000E+00
    -12.678  0.0000E+00  0.2000E+00
    -12.606  0.0000E+00  0.2000E+00
    -12.534  0.0000E+00  0.2000E+00
    -12.462  0.0000E+00  0.2000E+00
    -12.390  0.0000E+00  0.2000E+00
    -12.318  0.0000E+00  0.2000E+00
    -12.246  0.0000E+00  0.2000E+00
    -12.174  0.0000E+00  0.2000E+00
    -12.103  0.0000E+00  0.2000E+00
    -12.031  0.0000E+00  0.2000E+00
    -11.959  0.0000E+00  0.2000E+00
    -11.887  0.0000E+00  0.2000E+00
    -11.815  0.0000E+00  0.2000E+00
    -11.743  0.0000E+00  0.2000E+00
    -11.671  0.0000E+00  0.2000E+00
    -11.599  0.0000E+00  0.2000E+00
    -11.527  0.0000E+00  0.2000E+00
    -11.455  0.0000E+00  0.2000E+00
    -11.383  0.0000E+00  0.2000E+00
    -11.311  0.0000E+00  0.2000E+00
    -11.239  0.0000E+00  0.2000E+00
    -11.167  0.0000E+00  0.2000E+00
    -11.095  0.0000E+00  0.2000E+00
    -11.023  0.0000E+00  0.2000E+00
    -10.951  0.0000E+00  0.2000E+00
    -10.879  0.0000E+00  0.2000E+00
    -10.807  0.0000E+00  0.2000E+00
    -10.735  0.0000E+00  0.2000E+00
    -10.663  0.0000E+00  0.2000E+00
    -10.591  0.1543E-15  0.2000E+00
    -10.520  0.1269E-13  0.2000E+00
    -10.448  0.6087E-12  0.2000E+00
    -10.376  0.2269E-10  0.2000E+00
    -10.304  0.6553E-09  0.2000E+00
    -10.232  0.1466E-07  0.2000E+00
    -10.160  0.2541E-06  0.2000E+00
    -10.088  0.3414E-05  0.2000E+00
    -10.016  0.3557E-04  0.2000E+00
     -9.944  0.2877E-03  0.2000E+00
     -9.872  0.1807E-02  0.2002E+00
     -9.800  0.8834E-02  0.2008E+00
     -9.728  0.3371E-01  0.2032E+00
     -9.656  0.1009E+00  0.2105E+00
     -9.584  0.2394E+00  0.2277E+00
     -9.512  0.4576E+00  0.2606E+00
     -9.440  0.7235E+00  0.3127E+00
     -9.368  0.9797E+00  0.3832E+00
     -9.296  0.1173E+01  0.4676E+00
     -9.224  0.1257E+01  0.5581E+00
     -9.152  0.1187E+01  0.6435E+00
     -9.080  0.9580E+00  0.7124E+00
     -9.008  0.6424E+00  0.7586E+00
     -8.937  0.3504E+00  0.7838E+00
     -8.865  0.1533E+00  0.7948E+00
     -8.793  0.5327E-01  0.7987E+00
     -8.721  0.1461E-01  0.7997E+00
     -8.649  0.3148E-02  0.8000E+00
     -8.577  0.5307E-03  0.8000E+00
     -8.505  0.6982E-04  0.8000E+00
     -8.433  0.7154E-05  0.8000E+00
     -8.361  0.5701E-06  0.8000E+00
     -8.289  0.3529E-07  0.8000E+00
     -8.217  0.1695E-08  0.8000E+00
     -8.145  0.6315E-10  0.8000E+00
     -8.073  0.1824E-11  0.8000E+00
     -8.001  0.4073E-13  0.8000E+00
     -7.929  0.6172E-15  0.8000E+00
     -7.857  0.0000E+00  0.8000E+00
     -7.785  0.0000E+00  0.8000E+00
     -7.713  0.0000E+00  0.8000E+00
     -7.641  0.0000E+00  0.8000E+00
     -7.569  0.0000E+00  0.8000E+00
     -7.497  0.0000E+00  0.8000E+00
     -7.426  0.0000E+00  0.8000E+00
     -7.354  0.0000E+00  0.8000E+00
     -7.282  0.0000E+00  0.8000E+00
     -7.210  0.0000E+00  0.8000E+00
     -7.138  0.0000E+00  0.8000E+00
     -7.066  0.0000E+00  0.8000E+00
     -6.994  0.0000E+00  0.8000E+00
     -6.922  0.0000E+00  0.8000E+00
     -6.850  0.0000E+00  0.8000E+00
     -6.778  0.0000E+00  0.8000E+00
     -6.706  0.0000E+00  0.8000E+00
     -6.634  0.0000E+00  0.8000E+00
     -6.562  0.0000E+00  0.8000E+00
     -6.490  0.0000E+00  0.8000E+00
     -6.418  0.0000E+00  0.8000E+00
     -6.346  0.0000E+00  0.8000E+00
     -6.274  0.0000E+00  0.8000E+00
     -6.202  0.0000E+00  0.8000E+00
     -6.130  0.0000E+00  0.8000E+00
     -6.058  0.0000E+00  0.8000E+00
     -5.986  0.0000E+00  0.8000E+00
     -5.914  0.0000E+00  0.8000E+00
     -5.843  0.0000E+00  0.8000E+00
     -5.771  0.0000E+00  0.8000E+00
     -5.699  0.0000E+00  0.8000E+00
     -5.627  0.0000E+00  0.8000E+00
     -5.555  0.0000E+00  0.8000E+00
     -5.483  0.0000E+00  0.8000E+00
     -5.411  0.0000E+00  0.8000E+00
     -5.339  0.0000E+00  0.8000E+00
     -5.267  0.0000E+00  0.8000E+00
     -5.195  0.0000E+00  0.8000E+00
     -5.123  0.0000E+00  0.8000E+00
     -5.051  0.0000E+00  0.8000E+00
     -4.979  0.0000E+00  0.8000E+00
     -4.907  0.0000E+00  0.8000E+00
     -4.835  0.0000E+00  0.8000E+00
     -4.763  0.0000E+00  0.8000E+00
     -4.691  0.0000E+00  0.8000E+00
     -4.619  0.0000E+00  0.8000E+00
     -4.547  0.0000E+00  0.8000E+00
     -4.475  0.0000E+00  0.8000E+00
     -4.403  0.0000E+00  0.8000E+00
     -4.331  0.0000E+00  0.8000E+00
     -4.260  0.0000E+00  0.8000E+00
     -4.188  0.0000E+00  0.8000E+00
     -4.116  0.0000E+00  0.8000E+00
     -4.044  0.0000E+00  0.8000E+00
     -3.972  0.0000E+00  0.8000E+00
     -3.900  0.0000E+00  0.8000E+00
     -3.828  0.0000E+00  0.8000E+00
     -3.756  0.0000E+00  0.8000E+00
     -3.684  0.0000E+00  0.8000E+00
     -3.612  0.0000E+00  0.8000E+00
     -3.540  0.0000E+00  0.8000E+00
     -3.468  0.0000E+00  0.8000E+00
     -3.396  0.0000E+00  0.8000E+00
     -3.324  0.0000E+00  0.8000E+00
     -3.252  0.0000E+00  0.8000E+00
     -3.180  0.0000E+00  0.8000E+00
     -3.108  0.0000E+00  0.8000E+00
     -3.036  0.0000E+00  0.8000E+00
     -2.964  0.0000E+00  0.8000E+00
     -2.892  0.0000E+00  0.8000E+00
     -2.820  0.0000E+00  0.8000E+00
     -2.748  0.0000E+00  0.8000E+00
     -2.677  0.0000E+00  0.8000E+00
     -2.605  0.0000E+00  0.8000E+00
     -2.533  0.0000E+00  0.8000E+00
     -2.461  0.0000E+00  0.8000E+00
     -2.389  0.0000E+00  0.8000E+00
     -2.317  0.0000E+00  0.8000E+00
     -2.245  0.0000E+00  0.8000E+00
     -2.173  0.0000E+00  0.8000E+00
     -2.101  0.0000E+00  0.8000E+00
     -2.029  0.0000E+00  0.8000E+00
     -1.957  0.0000E+00  0.8000E+00
     -1.885  0.0000E+00  0.8000E+00
     -1.813  0.0000E+00  0.8000E+00
     -1.741  0.0000E+00  0.8000E+00
     -1.669  0.0000E+00  0.8000E+00
     -1.597  0.0000E+00  0.8000E+00
     -1.525  0.0000E+00  0.8000E+00
     -1.453  0.1312E-14  0.8000E+00
     -1.381  0.7229E-13  0.8000E+00
     -1.309  0.3106E-11  0.8000E+00
     -1.237  0.1034E-09  0.8000E+00
     -1.166  0.2665E-08  0.8000E+00
     -1.094  0.5322E-07  0.8000E+00
     -1.022  0.8237E-06  0.8000E+00
     -0.950  0.9882E-05  0.8000E+00
     -0.878  0.9190E-04  0.8000E+00
     -0.806  0.6628E-03  0.8001E+00
     -0.734  0.3708E-02  0.8003E+00
     -0.662  0.1609E-01  0.8015E+00
     -0.590  0.5417E-01  0.8054E+00
     -0.518  0.1416E+00  0.8156E+00
     -0.446  0.2871E+00  0.8362E+00
     -0.374  0.4518E+00  0.8687E+00
     -0.302  0.5521E+00  0.9085E+00
     -0.230  0.5237E+00  0.9461E+00
     -0.158  0.3856E+00  0.9739E+00
     -0.086  0.2204E+00  0.9897E+00
     -0.014  0.9781E-01  0.9968E+00
      0.058  0.3407E-01  0.9992E+00
      0.130  0.1154E-01  0.1000E+01
      0.202  0.1418E-01  0.1001E+01
      0.274  0.4730E-01  0.1004E+01
      0.346  0.1427E+00  0.1015E+01
      0.417  0.3473E+00  0.1040E+01
      0.489  0.6833E+00  0.1089E+01
      0.561  0.1094E+01  0.1168E+01
      0.633  0.1428E+01  0.1270E+01
      0.705  0.1521E+01  0.1380E+01
      0.777  0.1313E+01  0.1474E+01
      0.849  0.9127E+00  0.1540E+01
      0.921  0.5071E+00  0.1576E+01
      0.993  0.2235E+00  0.1592E+01
      1.065  0.7778E-01  0.1598E+01
      1.137  0.2126E-01  0.1600E+01
      1.209  0.4554E-02  0.1600E+01
      1.281  0.7625E-03  0.1600E+01
      1.353  0.9961E-04  0.1600E+01
      1.425  0.1014E-04  0.1600E+01
      1.497  0.8039E-06  0.1600E+01
      1.569  0.4958E-07  0.1600E+01
      1.641  0.2378E-08  0.1600E+01
      1.713  0.8858E-10  0.1600E+01
      1.785  0.2563E-11  0.1600E+01
      1.857  0.5763E-13  0.1600E+01
      1.929  0.9258E-15  0.1600E+01
      2.000  0.0000E+00  0.1600E+01
      2.072  0.0000E+00  0.1600E+01
      2.144  0.0000E+00  0.1600E+01
      2.216  0.0000E+00  0.1600E+01
      2.288  0.0000E+00  0.1600E+01
      2.360  0.0000E+00  0.1600E+01
      2.432  0.0000E+00  0.1600E+01
      2.504  0.0000E+00  0.1600E+01
      2.576  0.0000E+00  0.1600E+01
      2.648  0.0000E+00  0.1600E+01
      2.720  0.0000E+00  0.1600E+01
