    5    5   10    1
  0.1985492E+03  0.1025338E-08  0.9957528E-09  0.9726342E-09  0.5000000E-15
  1.000000000000000E-004
  CAR 
 unknown system                          
      8      4      8
 
  0.2500000E+00  0.2500000E+00  0.2500000E+00  0.2500000E+00
    1      -16.866207   1.000000
    2       -9.423671   1.000000
    3       -9.251393   1.000000
    4       -9.147851   1.000000
    5       -0.318718   0.000000
    6        0.571454   0.000000
    7        0.675509   0.000000
    8        0.720017   0.000000
 
 -0.2500000E+00  0.2500000E+00  0.2500000E+00  0.2500000E+00
    1      -16.866185   1.000000
    2       -9.423655   1.000000
    3       -9.251335   1.000000
    4       -9.147797   1.000000
    5       -0.319955   0.000000
    6        0.572499   0.000000
    7        0.679965   0.000000
    8        0.718081   0.000000
 
  0.2500000E+00 -0.2500000E+00  0.2500000E+00  0.2500000E+00
    1      -16.866123   1.000000
    2       -9.423480   1.000000
    3       -9.251214   1.000000
    4       -9.147760   1.000000
    5       -0.316625   0.000000
    6        0.566564   0.000000
    7        0.677101   0.000000
    8        0.709648   0.000000
 
 -0.2500000E+00 -0.2500000E+00  0.2500000E+00  0.2500000E+00
    1      -16.866122   1.000000
    2       -9.423696   1.000000
    3       -9.251326   1.000000
    4       -9.147758   1.000000
    5       -0.312993   0.000000
    6        0.556412   0.000000
    7        0.666545   0.000000
    8        0.705695   0.000000
