 running on   16 total cores
 distrk:  each k-point on   16 cores,    1 groups
 distr:  one band on    4 cores,    4 groups
 using from now: INCAR     
 vasp.5.4.4.18Apr17-6-g9f103f2a35 (build Nov 25 2021 15:25:00) complex          
  
 POSCAR found type information on POSCAR  H  C 
 POSCAR found :  2 types and       5 ions
 scaLAPACK will be used
 LDA part: xc-table for Pade appr. of Perdew
 POSCAR found type information on POSCAR  H  C 
 POSCAR found :  2 types and       5 ions
 generate k-points for:    2    2    2
 POSCAR, INCAR and KPOINTS ok, starting setup
 FFT: planning ...
 WAVECAR not read
 prediction of wavefunctions initialized - no I/O
 entering main loop
       N       E                     dE             d eps       ncg     rms          rms(c)
DAV:   1     0.158090124398E+02    0.15809E+02   -0.20151E+03    96   0.418E+02
DAV:   2    -0.222177054137E+02   -0.38027E+02   -0.38027E+02    64   0.114E+02
DAV:   3    -0.273426255869E+02   -0.51249E+01   -0.51249E+01    64   0.476E+01
DAV:   4    -0.275549373026E+02   -0.21231E+00   -0.21231E+00   128   0.112E+01
DAV:   5    -0.275550140011E+02   -0.76699E-04   -0.76699E-04    96   0.232E-01    0.877E+00
RMM:   6    -0.246319772607E+02    0.29230E+01   -0.54456E+00    64   0.143E+01    0.432E+00
RMM:   7    -0.241360084581E+02    0.49597E+00   -0.12364E+00    64   0.643E+00    0.229E+00
RMM:   8    -0.239891604501E+02    0.14685E+00   -0.16309E-01    64   0.289E+00    0.227E-01
RMM:   9    -0.239835167627E+02    0.56437E-02   -0.11092E-02    64   0.698E-01    0.196E-01
RMM:  10    -0.239774478416E+02    0.60689E-02   -0.24338E-02    64   0.851E-01    0.279E-01
RMM:  11    -0.239780267689E+02   -0.57893E-03   -0.74381E-03    64   0.540E-01    0.747E-02
RMM:  12    -0.239875744032E+02   -0.95476E-02   -0.36807E-03    64   0.376E-01    0.123E-01
RMM:  13    -0.239881045163E+02   -0.53011E-03   -0.95129E-04    64   0.172E-01    0.494E-02
RMM:  14    -0.239908931526E+02   -0.27886E-02   -0.12550E-03    64   0.219E-01    0.260E-02
RMM:  15    -0.239912264222E+02   -0.33327E-03   -0.58474E-05    64   0.467E-02    0.123E-02
RMM:  16    -0.239914283736E+02   -0.20195E-03   -0.50219E-05    64   0.422E-02    0.361E-03
RMM:  17    -0.239914738612E+02   -0.45488E-04   -0.22616E-05    64   0.263E-02    0.665E-03
RMM:  18    -0.239914797523E+02   -0.58910E-05   -0.10286E-05    64   0.179E-02    0.129E-03
RMM:  19    -0.239914835256E+02   -0.37733E-05   -0.32021E-07    48   0.444E-03    0.774E-04
RMM:  20    -0.239914843714E+02   -0.84583E-06   -0.15368E-07    48   0.244E-03
    1 T=     1. E= -.23990743E+02 F= -.23991484E+02 E0= -.23991484E+02  EK= 0.74119E-03 SP= 0.00E+00 SK= 0.00E+00
 bond charge predicted
       N       E                     dE             d eps       ncg     rms          rms(c)
DAV:   1    -0.239971610979E+02   -0.56776E-02   -0.63137E-03    72   0.773E-01    0.351E-02
RMM:   2    -0.239971551917E+02    0.59062E-05   -0.14218E-04    64   0.104E-01    0.217E-02
RMM:   3    -0.239971522243E+02    0.29674E-05   -0.30793E-05    64   0.414E-02    0.368E-03
RMM:   4    -0.239971517547E+02    0.46958E-06   -0.73334E-07    48   0.830E-03
    2 T=    12. E= -.23990863E+02 F= -.23997152E+02 E0= -.23997152E+02  EK= 0.62888E-02 SP= 0.00E+00 SK= 0.00E+00
 bond charge predicted
 prediction of wavefunctions
       N       E                     dE             d eps       ncg     rms          rms(c)
DAV:   1    -0.240066131991E+02   -0.94610E-02   -0.52418E-03    64   0.724E-01    0.100E-02
RMM:   2    -0.240066336158E+02   -0.20417E-04   -0.20335E-04    64   0.130E-01    0.385E-03
RMM:   3    -0.240066349696E+02   -0.13538E-05   -0.66896E-06    62   0.230E-02    0.304E-03
RMM:   4    -0.240066355044E+02   -0.53481E-06   -0.85122E-07    48   0.858E-03
    3 T=    30. E= -.23991055E+02 F= -.24006636E+02 E0= -.24006636E+02  EK= 0.15580E-01 SP= 0.00E+00 SK= 0.00E+00
 bond charge predicted
 prediction of wavefunctions
       N       E                     dE             d eps       ncg     rms          rms(c)
DAV:   1    -0.240168882873E+02   -0.10253E-01   -0.18345E-03    64   0.377E-01    0.942E-03
RMM:   2    -0.240168904811E+02   -0.21938E-05   -0.42938E-05    64   0.545E-02    0.674E-03
RMM:   3    -0.240168906992E+02   -0.21809E-06   -0.63125E-06    61   0.168E-02    0.248E-03
RMM:   4    -0.240168912677E+02   -0.56844E-06   -0.29754E-07    48   0.504E-03
    4 T=    50. E= -.23991266E+02 F= -.24016891E+02 E0= -.24016891E+02  EK= 0.25625E-01 SP= 0.00E+00 SK= 0.00E+00
 bond charge predicted
 prediction of wavefunctions
       N       E                     dE             d eps       ncg     rms          rms(c)
DAV:   1    -0.240246165343E+02   -0.77258E-02   -0.25047E-03    64   0.485E-01    0.521E-03
RMM:   2    -0.240246227878E+02   -0.62535E-05   -0.27476E-05    64   0.389E-02    0.372E-03
RMM:   3    -0.240246245252E+02   -0.17373E-05   -0.77186E-07    48   0.770E-03    0.285E-03
RMM:   4    -0.240246302770E+02   -0.57519E-05   -0.26534E-06    56   0.918E-03    0.124E-03
RMM:   5    -0.240246309263E+02   -0.64925E-06   -0.12191E-07    48   0.279E-03
    5 T=    64. E= -.23991417E+02 F= -.24024631E+02 E0= -.24024631E+02  EK= 0.33214E-01 SP= 0.00E+00 SK= 0.00E+00
 bond charge predicted
 prediction of wavefunctions
       N       E                     dE             d eps       ncg     rms          rms(c)
DAV:   1    -0.240274064163E+02   -0.27761E-02   -0.29046E-03    64   0.502E-01    0.652E-03
RMM:   2    -0.240274097827E+02   -0.33664E-05   -0.13773E-05    64   0.309E-02    0.319E-03
RMM:   3    -0.240274149132E+02   -0.51305E-05   -0.35289E-06    60   0.122E-02    0.909E-04
RMM:   4    -0.240274169972E+02   -0.20840E-05   -0.14456E-07    48   0.346E-03    0.604E-04
RMM:   5    -0.240274255540E+02   -0.85567E-05   -0.59672E-07    48   0.474E-03    0.113E-03
RMM:   6    -0.240274273286E+02   -0.17746E-05   -0.15450E-07    48   0.242E-03    0.464E-04
RMM:   7    -0.240274289705E+02   -0.16420E-05   -0.15068E-07    48   0.254E-03    0.321E-04
RMM:   8    -0.240274308083E+02   -0.18378E-05   -0.12212E-07    44   0.193E-03    0.264E-04
RMM:   9    -0.240274308424E+02   -0.34035E-07    0.00000E+00    32   0.121E-03
    6 T=    70. E= -.23991484E+02 F= -.24027431E+02 E0= -.24027431E+02  EK= 0.35947E-01 SP= 0.00E+00 SK= 0.00E+00
 bond charge predicted
 prediction of wavefunctions
       N       E                     dE             d eps       ncg     rms          rms(c)
DAV:   1    -0.240243707603E+02    0.30600E-02   -0.28375E-03    64   0.452E-01    0.504E-03
RMM:   2    -0.240243760699E+02   -0.53096E-05   -0.15596E-05    64   0.352E-02    0.209E-03
RMM:   3    -0.240243810384E+02   -0.49685E-05   -0.86484E-07    48   0.784E-03    0.975E-04
RMM:   4    -0.240243872170E+02   -0.61786E-05   -0.35780E-07    48   0.466E-03    0.444E-04
RMM:   5    -0.240243973860E+02   -0.10169E-04   -0.46399E-07    48   0.377E-03    0.377E-04
RMM:   6    -0.240244033421E+02   -0.59561E-05   -0.40765E-07    44   0.310E-03    0.305E-04
RMM:   7    -0.240244047369E+02   -0.13948E-05   -0.12356E-07    44   0.213E-03    0.909E-05
RMM:   8    -0.240244050035E+02   -0.26663E-06    0.00000E+00    32   0.136E-03
    7 T=    64. E= -.23991419E+02 F= -.24024405E+02 E0= -.24024405E+02  EK= 0.32986E-01 SP= 0.00E+00 SK= 0.00E+00
 bond charge predicted
 prediction of wavefunctions
       N       E                     dE             d eps       ncg     rms          rms(c)
DAV:   1    -0.240165929742E+02    0.78118E-02   -0.24116E-03    96   0.406E-01    0.325E-03
RMM:   2    -0.240165957113E+02   -0.27371E-05   -0.17220E-05    63   0.450E-02    0.242E-03
RMM:   3    -0.240165963627E+02   -0.65145E-06   -0.34537E-07    48   0.544E-03    0.181E-03
RMM:   4    -0.240165983088E+02   -0.19460E-05   -0.43023E-07    48   0.483E-03    0.432E-04
RMM:   5    -0.240165988990E+02   -0.59027E-06   -0.30471E-08    40   0.198E-03
    8 T=    49. E= -.23991249E+02 F= -.24016599E+02 E0= -.24016599E+02  EK= 0.25350E-01 SP= 0.00E+00 SK= 0.00E+00
 bond charge predicted
 prediction of wavefunctions
       N       E                     dE             d eps       ncg     rms          rms(c)
DAV:   1    -0.240066731853E+02    0.99251E-02   -0.16259E-03    88   0.342E-01    0.524E-03
RMM:   2    -0.240066753726E+02   -0.21872E-05   -0.21144E-05    64   0.514E-02    0.291E-03
RMM:   3    -0.240066761994E+02   -0.82680E-06   -0.80542E-07    48   0.760E-03    0.162E-03
RMM:   4    -0.240066774424E+02   -0.12430E-05   -0.44402E-07    48   0.560E-03    0.708E-04
RMM:   5    -0.240066786181E+02   -0.11757E-05   -0.87804E-08    48   0.268E-03    0.217E-04
RMM:   6    -0.240066794154E+02   -0.79731E-06   -0.22559E-09    34   0.143E-03
    9 T=    30. E= -.23991031E+02 F= -.24006679E+02 E0= -.24006679E+02  EK= 0.15648E-01 SP= 0.00E+00 SK= 0.00E+00
 bond charge predicted
 prediction of wavefunctions
       N       E                     dE             d eps       ncg     rms          rms(c)
DAV:   1    -0.239980913049E+02    0.85873E-02   -0.77042E-04    80   0.249E-01    0.317E-03
RMM:   2    -0.239980927225E+02   -0.14176E-05   -0.13613E-05    60   0.407E-02    0.247E-03
RMM:   3    -0.239980928212E+02   -0.98769E-07   -0.26344E-07    48   0.469E-03    0.187E-03
RMM:   4    -0.239980932910E+02   -0.46982E-06   -0.61981E-08    43   0.284E-03
   10 T=    14. E= -.23990837E+02 F= -.23998093E+02 E0= -.23998093E+02  EK= 0.72559E-02 SP= 0.00E+00 SK= 0.00E+00
 bond charge predicted
 prediction of wavefunctions
 wavefunctions rotated
