unknown system                          
           1
    10.253383    0.000000    0.000000
    -0.136175    9.956597    0.000000
     0.066128    0.186130    9.724336
   H    C 
   4   1
Direct configuration=     1
   0.53755158  0.40733604  0.36028794
   0.39425642  0.48067269  0.43866049
   0.55257230  0.56546677  0.44245899
   0.52839725  0.41594500  0.53878847
   0.50345849  0.46714771  0.44524632
Direct configuration=     2
   0.53755935  0.40730834  0.36019623
   0.39449810  0.48063647  0.43867810
   0.55256984  0.56549050  0.44244174
   0.52841781  0.41583681  0.53901580
   0.50343622  0.46716007  0.44523500
Direct configuration=     3
   0.53757274  0.40725701  0.36001902
   0.39496414  0.48056661  0.43871219
   0.55256396  0.56553615  0.44240740
   0.52845477  0.41563175  0.53944904
   0.50339371  0.46718343  0.44521370
Direct configuration=     4
   0.53758858  0.40718879  0.35976897
   0.39562079  0.48046741  0.43876074
   0.55255445  0.56560076  0.44235703
   0.52849999  0.41535033  0.54004904
   0.50333475  0.46721542  0.44518472
Direct configuration=     5
   0.53760254  0.40711309  0.35946389
   0.39641905  0.48034502  0.43882087
   0.55254084  0.56567974  0.44229218
   0.52854278  0.41502011  0.54076304
   0.50326470  0.46725283  0.44515107
Direct configuration=     6
   0.53760956  0.40704082  0.35912478
   0.39729646  0.48020729  0.43888893
   0.55252266  0.56576768  0.44221478
   0.52857135  0.41467216  0.54153124
   0.50319020  0.46729196  0.44511612
Direct configuration=     7
   0.53760449  0.40698333  0.35877408
   0.39818068  0.48006327  0.43896071
   0.55249934  0.56585862  0.44212702
   0.52857420  0.41433790  0.54229271
   0.50311871  0.46732900  0.44508325
Direct configuration=     8
   0.53758248  0.40695133  0.35843380
   0.39899471  0.47992261  0.43903177
   0.55247032  0.56594659  0.44203126
   0.52854127  0.41404642  0.54299053
   0.50305792  0.46736032  0.44505554
Direct configuration=     9
   0.53753949  0.40695398  0.35812401
   0.39966400  0.47979472  0.43909775
   0.55243507  0.56602597  0.44192990
   0.52846478  0.41382240  0.54357556
   0.50301508  0.46738278  0.44503557
Direct configuration=    10
   0.53747269  0.40699804  0.35786129
   0.40012460  0.47968786  0.43915478
   0.55239315  0.56609209  0.44182530
   0.52833982  0.41368466  0.54400938
   0.50299619  0.46739398  0.44502528
