unknown system                          
           1
     9.922518    0.000000    0.000000
    -0.244059    9.867171    0.000000
    -0.236594    0.002695   10.002978
   H    C 
   4   1
Direct configuration=     1
   0.53810621  0.40663110  0.36086851
   0.39454837  0.48032522  0.43847692
   0.55220391  0.56536889  0.44282098
   0.52794728  0.41637939  0.53921194
   0.50408850  0.46752936  0.44560530
Direct configuration=     2
   0.53807259  0.40665158  0.36090927
   0.39454869  0.48030600  0.43845390
   0.55233340  0.56559259  0.44283016
   0.52798396  0.41634992  0.53927308
   0.50407744  0.46751308  0.44559797
Direct configuration=     3
   0.53800815  0.40669069  0.36098776
   0.39454839  0.48026848  0.43840868
   0.55258097  0.56601680  0.44284912
   0.52805524  0.41629393  0.53939036
   0.50405629  0.46748229  0.44558386
Direct configuration=     4
   0.53791687  0.40674386  0.36109678
   0.39454620  0.48021405  0.43834226
   0.55292557  0.56660014  0.44287859
   0.52815814  0.41621700  0.53955419
   0.50402681  0.46744023  0.44556422
Direct configuration=     5
   0.53780420  0.40680494  0.36122658
   0.39454090  0.48014457  0.43825613
   0.55333899  0.56728744  0.44291944
   0.52828837  0.41612701  0.53975100
   0.50399137  0.46739120  0.44554080
Direct configuration=     6
   0.53767680  0.40686661  0.36136548
   0.39453120  0.48006240  0.43815225
   0.55378905  0.56801612  0.44297243
   0.52844063  0.41603331  0.53996455
   0.50395264  0.46734004  0.44551569
Direct configuration=     7
   0.53754201  0.40692104  0.36150089
   0.39451598  0.47997017  0.43803293
   0.55424280  0.56872284  0.44303799
   0.52860899  0.41594582  0.54017735
   0.50391333  0.46729163  0.44549117
Direct configuration=     8
   0.53740732  0.40696050  0.36162032
   0.39449433  0.47987062  0.43790083
   0.55466930  0.56934889  0.44311606
   0.52878727  0.41587413  0.54037216
   0.50387600  0.46725048  0.44546951
Direct configuration=     9
   0.53727977  0.40697833  0.36171274
   0.39446594  0.47976647  0.43775880
   0.55504156  0.56984419  0.44320606
   0.52896934  0.41582676  0.54053324
   0.50384283  0.46722038  0.44545274
Direct configuration=    10
   0.53716536  0.40696956  0.36176964
   0.39443114  0.47966026  0.43760991
   0.55533801  0.57017000  0.44330682
   0.52914944  0.41581045  0.54064744
   0.50381557  0.46720418  0.44544250
