   5   5   0   0
  0.1944088E+03  0.9830962E-09  0.9741495E-09  0.1015783E-08  0.5000000E-15
  1.000000000000000E-004
  CAR 
 unknown system                          
      2.72688789    -18.81886271  301     -8.18955561      1.00000000
    -18.819  0.0000E+00  0.0000E+00
    -18.747  0.0000E+00  0.0000E+00
    -18.675  0.0000E+00  0.0000E+00
    -18.603  0.0000E+00  0.0000E+00
    -18.532  0.0000E+00  0.0000E+00
    -18.460  0.0000E+00  0.0000E+00
    -18.388  0.0000E+00  0.0000E+00
    -18.316  0.0000E+00  0.0000E+00
    -18.244  0.0000E+00  0.0000E+00
    -18.172  0.0000E+00  0.0000E+00
    -18.101  0.0000E+00  0.0000E+00
    -18.029  0.0000E+00  0.0000E+00
    -17.957  0.1394E-13  0.1005E-14
    -17.885  0.7627E-12  0.5598E-13
    -17.813  0.3288E-10  0.2426E-11
    -17.742  0.1096E-08  0.8145E-10
    -17.670  0.2829E-07  0.2121E-08
    -17.598  0.5650E-06  0.4285E-07
    -17.526  0.8736E-05  0.6726E-06
    -17.454  0.1046E-03  0.8213E-05
    -17.382  0.9702E-03  0.7814E-04
    -17.311  0.6971E-02  0.5806E-03
    -17.239  0.3882E-01  0.3378E-02
    -17.167  0.1675E+00  0.1545E-01
    -17.095  0.5606E+00  0.5586E-01
    -17.023  0.1455E+01  0.1607E+00
    -16.952  0.2927E+01  0.3717E+00
    -16.880  0.4569E+01  0.7009E+00
    -16.808  0.5533E+01  0.1100E+01
    -16.736  0.5198E+01  0.1474E+01
    -16.664  0.3789E+01  0.1747E+01
    -16.592  0.2143E+01  0.1902E+01
    -16.521  0.9402E+00  0.1969E+01
    -16.449  0.3200E+00  0.1992E+01
    -16.377  0.8452E-01  0.1999E+01
    -16.305  0.1731E-01  0.2000E+01
    -16.233  0.2751E-02  0.2000E+01
    -16.162  0.3390E-03  0.2000E+01
    -16.090  0.3240E-04  0.2000E+01
    -16.018  0.2400E-05  0.2000E+01
    -15.946  0.1378E-06  0.2000E+01
    -15.874  0.6137E-08  0.2000E+01
    -15.802  0.2118E-09  0.2000E+01
    -15.731  0.5662E-11  0.2000E+01
    -15.659  0.1184E-12  0.2000E+01
    -15.587  0.9271E-15  0.2000E+01
    -15.515  0.0000E+00  0.2000E+01
    -15.443  0.0000E+00  0.2000E+01
    -15.372  0.0000E+00  0.2000E+01
    -15.300  0.0000E+00  0.2000E+01
    -15.228  0.0000E+00  0.2000E+01
    -15.156  0.0000E+00  0.2000E+01
    -15.084  0.0000E+00  0.2000E+01
    -15.012  0.0000E+00  0.2000E+01
    -14.941  0.0000E+00  0.2000E+01
    -14.869  0.0000E+00  0.2000E+01
    -14.797  0.0000E+00  0.2000E+01
    -14.725  0.0000E+00  0.2000E+01
    -14.653  0.0000E+00  0.2000E+01
    -14.582  0.0000E+00  0.2000E+01
    -14.510  0.0000E+00  0.2000E+01
    -14.438  0.0000E+00  0.2000E+01
    -14.366  0.0000E+00  0.2000E+01
    -14.294  0.0000E+00  0.2000E+01
    -14.222  0.0000E+00  0.2000E+01
    -14.151  0.0000E+00  0.2000E+01
    -14.079  0.0000E+00  0.2000E+01
    -14.007  0.0000E+00  0.2000E+01
    -13.935  0.0000E+00  0.2000E+01
    -13.863  0.0000E+00  0.2000E+01
    -13.792  0.0000E+00  0.2000E+01
    -13.720  0.0000E+00  0.2000E+01
    -13.648  0.0000E+00  0.2000E+01
    -13.576  0.0000E+00  0.2000E+01
    -13.504  0.0000E+00  0.2000E+01
    -13.432  0.0000E+00  0.2000E+01
    -13.361  0.0000E+00  0.2000E+01
    -13.289  0.0000E+00  0.2000E+01
    -13.217  0.0000E+00  0.2000E+01
    -13.145  0.0000E+00  0.2000E+01
    -13.073  0.0000E+00  0.2000E+01
    -13.002  0.0000E+00  0.2000E+01
    -12.930  0.0000E+00  0.2000E+01
    -12.858  0.0000E+00  0.2000E+01
    -12.786  0.0000E+00  0.2000E+01
    -12.714  0.0000E+00  0.2000E+01
    -12.642  0.0000E+00  0.2000E+01
    -12.571  0.0000E+00  0.2000E+01
    -12.499  0.0000E+00  0.2000E+01
    -12.427  0.0000E+00  0.2000E+01
    -12.355  0.0000E+00  0.2000E+01
    -12.283  0.0000E+00  0.2000E+01
    -12.211  0.0000E+00  0.2000E+01
    -12.140  0.0000E+00  0.2000E+01
    -12.068  0.0000E+00  0.2000E+01
    -11.996  0.0000E+00  0.2000E+01
    -11.924  0.0000E+00  0.2000E+01
    -11.852  0.0000E+00  0.2000E+01
    -11.781  0.0000E+00  0.2000E+01
    -11.709  0.0000E+00  0.2000E+01
    -11.637  0.0000E+00  0.2000E+01
    -11.565  0.0000E+00  0.2000E+01
    -11.493  0.0000E+00  0.2000E+01
    -11.421  0.0000E+00  0.2000E+01
    -11.350  0.0000E+00  0.2000E+01
    -11.278  0.0000E+00  0.2000E+01
    -11.206  0.0000E+00  0.2000E+01
    -11.134  0.0000E+00  0.2000E+01
    -11.062  0.0000E+00  0.2000E+01
    -10.991  0.0000E+00  0.2000E+01
    -10.919  0.0000E+00  0.2000E+01
    -10.847  0.0000E+00  0.2000E+01
    -10.775  0.0000E+00  0.2000E+01
    -10.703  0.0000E+00  0.2000E+01
    -10.631  0.0000E+00  0.2000E+01
    -10.560  0.5301E-14  0.2000E+01
    -10.488  0.2977E-12  0.2000E+01
    -10.416  0.1311E-10  0.2000E+01
    -10.344  0.4481E-09  0.2000E+01
    -10.272  0.1188E-07  0.2000E+01
    -10.201  0.2448E-06  0.2000E+01
    -10.129  0.3920E-05  0.2000E+01
    -10.057  0.4887E-04  0.2000E+01
     -9.985  0.4749E-03  0.2000E+01
     -9.913  0.3602E-02  0.2000E+01
     -9.841  0.2138E-01  0.2002E+01
     -9.770  0.9956E-01  0.2009E+01
     -9.698  0.3654E+00  0.2035E+01
     -9.626  0.1064E+01  0.2112E+01
     -9.554  0.2487E+01  0.2291E+01
     -9.482  0.4736E+01  0.2633E+01
     -9.411  0.7515E+01  0.3174E+01
     -9.339  0.1019E+02  0.3909E+01
     -9.267  0.1206E+02  0.4777E+01
     -9.195  0.1258E+02  0.5683E+01
     -9.123  0.1149E+02  0.6511E+01
     -9.051  0.9048E+01  0.7163E+01
     -8.980  0.6023E+01  0.7597E+01
     -8.908  0.3329E+01  0.7837E+01
     -8.836  0.1504E+01  0.7946E+01
     -8.764  0.5483E+00  0.7985E+01
     -8.692  0.1597E+00  0.7997E+01
     -8.621  0.3687E-01  0.7999E+01
     -8.549  0.6706E-02  0.8000E+01
     -8.477  0.9568E-03  0.8000E+01
     -8.405  0.1067E-03  0.8000E+01
     -8.333  0.9286E-05  0.8000E+01
     -8.261  0.6289E-06  0.8000E+01
     -8.190  0.3311E-07  0.8000E+01
     -8.118  0.1354E-08  0.8000E+01
     -8.046  0.4292E-10  0.8000E+01
     -7.974  0.1055E-11  0.8000E+01
     -7.902  0.2029E-13  0.8000E+01
     -7.831  0.0000E+00  0.8000E+01
     -7.759  0.0000E+00  0.8000E+01
     -7.687  0.0000E+00  0.8000E+01
     -7.615  0.0000E+00  0.8000E+01
     -7.543  0.0000E+00  0.8000E+01
     -7.471  0.0000E+00  0.8000E+01
     -7.400  0.0000E+00  0.8000E+01
     -7.328  0.0000E+00  0.8000E+01
     -7.256  0.0000E+00  0.8000E+01
     -7.184  0.0000E+00  0.8000E+01
     -7.112  0.0000E+00  0.8000E+01
     -7.041  0.0000E+00  0.8000E+01
     -6.969  0.0000E+00  0.8000E+01
     -6.897  0.0000E+00  0.8000E+01
     -6.825  0.0000E+00  0.8000E+01
     -6.753  0.0000E+00  0.8000E+01
     -6.681  0.0000E+00  0.8000E+01
     -6.610  0.0000E+00  0.8000E+01
     -6.538  0.0000E+00  0.8000E+01
     -6.466  0.0000E+00  0.8000E+01
     -6.394  0.0000E+00  0.8000E+01
     -6.322  0.0000E+00  0.8000E+01
     -6.251  0.0000E+00  0.8000E+01
     -6.179  0.0000E+00  0.8000E+01
     -6.107  0.0000E+00  0.8000E+01
     -6.035  0.0000E+00  0.8000E+01
     -5.963  0.0000E+00  0.8000E+01
     -5.891  0.0000E+00  0.8000E+01
     -5.820  0.0000E+00  0.8000E+01
     -5.748  0.0000E+00  0.8000E+01
     -5.676  0.0000E+00  0.8000E+01
     -5.604  0.0000E+00  0.8000E+01
     -5.532  0.0000E+00  0.8000E+01
     -5.460  0.0000E+00  0.8000E+01
     -5.389  0.0000E+00  0.8000E+01
     -5.317  0.0000E+00  0.8000E+01
     -5.245  0.0000E+00  0.8000E+01
     -5.173  0.0000E+00  0.8000E+01
     -5.101  0.0000E+00  0.8000E+01
     -5.030  0.0000E+00  0.8000E+01
     -4.958  0.0000E+00  0.8000E+01
     -4.886  0.0000E+00  0.8000E+01
     -4.814  0.0000E+00  0.8000E+01
     -4.742  0.0000E+00  0.8000E+01
     -4.670  0.0000E+00  0.8000E+01
     -4.599  0.0000E+00  0.8000E+01
     -4.527  0.0000E+00  0.8000E+01
     -4.455  0.0000E+00  0.8000E+01
     -4.383  0.0000E+00  0.8000E+01
     -4.311  0.0000E+00  0.8000E+01
     -4.240  0.0000E+00  0.8000E+01
     -4.168  0.0000E+00  0.8000E+01
     -4.096  0.0000E+00  0.8000E+01
     -4.024  0.0000E+00  0.8000E+01
     -3.952  0.0000E+00  0.8000E+01
     -3.880  0.0000E+00  0.8000E+01
     -3.809  0.0000E+00  0.8000E+01
     -3.737  0.0000E+00  0.8000E+01
     -3.665  0.0000E+00  0.8000E+01
     -3.593  0.0000E+00  0.8000E+01
     -3.521  0.0000E+00  0.8000E+01
     -3.450  0.0000E+00  0.8000E+01
     -3.378  0.0000E+00  0.8000E+01
     -3.306  0.0000E+00  0.8000E+01
     -3.234  0.0000E+00  0.8000E+01
     -3.162  0.0000E+00  0.8000E+01
     -3.090  0.0000E+00  0.8000E+01
     -3.019  0.0000E+00  0.8000E+01
     -2.947  0.0000E+00  0.8000E+01
     -2.875  0.0000E+00  0.8000E+01
     -2.803  0.0000E+00  0.8000E+01
     -2.731  0.0000E+00  0.8000E+01
     -2.660  0.0000E+00  0.8000E+01
     -2.588  0.0000E+00  0.8000E+01
     -2.516  0.0000E+00  0.8000E+01
     -2.444  0.0000E+00  0.8000E+01
     -2.372  0.0000E+00  0.8000E+01
     -2.300  0.0000E+00  0.8000E+01
     -2.229  0.0000E+00  0.8000E+01
     -2.157  0.0000E+00  0.8000E+01
     -2.085  0.0000E+00  0.8000E+01
     -2.013  0.0000E+00  0.8000E+01
     -1.941  0.0000E+00  0.8000E+01
     -1.870  0.0000E+00  0.8000E+01
     -1.798  0.0000E+00  0.8000E+01
     -1.726  0.0000E+00  0.8000E+01
     -1.654  0.0000E+00  0.8000E+01
     -1.582  0.0000E+00  0.8000E+01
     -1.510  0.3865E-16  0.8000E+01
     -1.439  0.1794E-13  0.8000E+01
     -1.367  0.9458E-12  0.8000E+01
     -1.295  0.3942E-10  0.8000E+01
     -1.223  0.1275E-08  0.8000E+01
     -1.151  0.3202E-07  0.8000E+01
     -1.080  0.6243E-06  0.8000E+01
     -1.008  0.9451E-05  0.8000E+01
     -0.936  0.1111E-03  0.8000E+01
     -0.864  0.1014E-02  0.8000E+01
     -0.792  0.7194E-02  0.8001E+01
     -0.720  0.3963E-01  0.8003E+01
     -0.649  0.1696E+00  0.8016E+01
     -0.577  0.5640E+00  0.8056E+01
     -0.505  0.1457E+01  0.8161E+01
     -0.433  0.2923E+01  0.8372E+01
     -0.361  0.4557E+01  0.8700E+01
     -0.290  0.5519E+01  0.9098E+01
     -0.218  0.5192E+01  0.9472E+01
     -0.146  0.3793E+01  0.9746E+01
     -0.074  0.2152E+01  0.9901E+01
     -0.002  0.9483E+00  0.9969E+01
      0.070  0.3279E+00  0.9993E+01
      0.141  0.1104E+00  0.1000E+02
      0.213  0.1369E+00  0.1001E+02
      0.285  0.4618E+00  0.1004E+02
      0.357  0.1406E+01  0.1014E+02
      0.429  0.3449E+01  0.1039E+02
      0.500  0.6830E+01  0.1089E+02
      0.572  0.1098E+02  0.1168E+02
      0.644  0.1436E+02  0.1271E+02
      0.716  0.1526E+02  0.1381E+02
      0.788  0.1312E+02  0.1476E+02
      0.860  0.9065E+01  0.1541E+02
      0.931  0.5000E+01  0.1577E+02
      1.003  0.2187E+01  0.1593E+02
      1.075  0.7547E+00  0.1598E+02
      1.147  0.2046E+00  0.1600E+02
      1.219  0.4343E-01  0.1600E+02
      1.291  0.7205E-02  0.1600E+02
      1.362  0.9323E-03  0.1600E+02
      1.434  0.9398E-04  0.1600E+02
      1.506  0.7373E-05  0.1600E+02
      1.578  0.4497E-06  0.1600E+02
      1.650  0.2132E-07  0.1600E+02
      1.721  0.7848E-09  0.1600E+02
      1.793  0.2242E-10  0.1600E+02
      1.865  0.4976E-12  0.1600E+02
      1.937  0.8240E-14  0.1600E+02
      2.009  0.0000E+00  0.1600E+02
      2.081  0.0000E+00  0.1600E+02
      2.152  0.0000E+00  0.1600E+02
      2.224  0.0000E+00  0.1600E+02
      2.296  0.0000E+00  0.1600E+02
      2.368  0.0000E+00  0.1600E+02
      2.440  0.0000E+00  0.1600E+02
      2.511  0.0000E+00  0.1600E+02
      2.583  0.0000E+00  0.1600E+02
      2.655  0.0000E+00  0.1600E+02
      2.727  0.0000E+00  0.1600E+02
      2.72468595    -18.81323271  301     -8.18778940      1.00000000
    -18.813  0.0000E+00  0.0000E+00
    -18.741  0.0000E+00  0.0000E+00
    -18.670  0.0000E+00  0.0000E+00
    -18.598  0.0000E+00  0.0000E+00
    -18.526  0.0000E+00  0.0000E+00
    -18.454  0.0000E+00  0.0000E+00
    -18.382  0.0000E+00  0.0000E+00
    -18.311  0.0000E+00  0.0000E+00
    -18.239  0.0000E+00  0.0000E+00
    -18.167  0.0000E+00  0.0000E+00
    -18.095  0.0000E+00  0.0000E+00
    -18.024  0.0000E+00  0.0000E+00
    -17.952  0.1082E-14  0.7772E-16
    -17.880  0.6298E-13  0.4599E-14
    -17.808  0.2708E-11  0.1990E-12
    -17.736  0.9037E-10  0.6687E-11
    -17.665  0.2338E-08  0.1746E-09
    -17.593  0.4693E-07  0.3544E-08
    -17.521  0.7305E-06  0.5599E-07
    -17.449  0.8824E-05  0.6895E-06
    -17.377  0.8272E-04  0.6628E-05
    -17.306  0.6020E-03  0.4984E-04
    -17.234  0.3401E-02  0.2940E-03
    -17.162  0.1492E-01  0.1365E-02
    -17.090  0.5085E-01  0.5016E-02
    -17.018  0.1346E+00  0.1468E-01
    -16.947  0.2768E+00  0.3455E-01
    -16.875  0.4423E+00  0.6631E-01
    -16.803  0.5492E+00  0.1057E+00
    -16.731  0.5299E+00  0.1438E+00
    -16.659  0.3973E+00  0.1723E+00
    -16.588  0.2315E+00  0.1889E+00
    -16.516  0.1048E+00  0.1964E+00
    -16.444  0.3685E-01  0.1991E+00
    -16.372  0.1007E-01  0.1998E+00
    -16.300  0.2135E-02  0.2000E+00
    -16.229  0.3518E-03  0.2000E+00
    -16.157  0.4500E-04  0.2000E+00
    -16.085  0.4467E-05  0.2000E+00
    -16.013  0.3441E-06  0.2000E+00
    -15.942  0.2057E-07  0.2000E+00
    -15.870  0.9538E-09  0.2000E+00
    -15.798  0.3430E-10  0.2000E+00
    -15.726  0.9562E-12  0.2000E+00
    -15.654  0.2072E-13  0.2000E+00
    -15.583  0.3093E-15  0.2000E+00
    -15.511  0.0000E+00  0.2000E+00
    -15.439  0.0000E+00  0.2000E+00
    -15.367  0.0000E+00  0.2000E+00
    -15.295  0.0000E+00  0.2000E+00
    -15.224  0.0000E+00  0.2000E+00
    -15.152  0.0000E+00  0.2000E+00
    -15.080  0.0000E+00  0.2000E+00
    -15.008  0.0000E+00  0.2000E+00
    -14.936  0.0000E+00  0.2000E+00
    -14.865  0.0000E+00  0.2000E+00
    -14.793  0.0000E+00  0.2000E+00
    -14.721  0.0000E+00  0.2000E+00
    -14.649  0.0000E+00  0.2000E+00
    -14.577  0.0000E+00  0.2000E+00
    -14.506  0.0000E+00  0.2000E+00
    -14.434  0.0000E+00  0.2000E+00
    -14.362  0.0000E+00  0.2000E+00
    -14.290  0.0000E+00  0.2000E+00
    -14.218  0.0000E+00  0.2000E+00
    -14.147  0.0000E+00  0.2000E+00
    -14.075  0.0000E+00  0.2000E+00
    -14.003  0.0000E+00  0.2000E+00
    -13.931  0.0000E+00  0.2000E+00
    -13.860  0.0000E+00  0.2000E+00
    -13.788  0.0000E+00  0.2000E+00
    -13.716  0.0000E+00  0.2000E+00
    -13.644  0.0000E+00  0.2000E+00
    -13.572  0.0000E+00  0.2000E+00
    -13.501  0.0000E+00  0.2000E+00
    -13.429  0.0000E+00  0.2000E+00
    -13.357  0.0000E+00  0.2000E+00
    -13.285  0.0000E+00  0.2000E+00
    -13.213  0.0000E+00  0.2000E+00
    -13.142  0.0000E+00  0.2000E+00
    -13.070  0.0000E+00  0.2000E+00
    -12.998  0.0000E+00  0.2000E+00
    -12.926  0.0000E+00  0.2000E+00
    -12.854  0.0000E+00  0.2000E+00
    -12.783  0.0000E+00  0.2000E+00
    -12.711  0.0000E+00  0.2000E+00
    -12.639  0.0000E+00  0.2000E+00
    -12.567  0.0000E+00  0.2000E+00
    -12.495  0.0000E+00  0.2000E+00
    -12.424  0.0000E+00  0.2000E+00
    -12.352  0.0000E+00  0.2000E+00
    -12.280  0.0000E+00  0.2000E+00
    -12.208  0.0000E+00  0.2000E+00
    -12.136  0.0000E+00  0.2000E+00
    -12.065  0.0000E+00  0.2000E+00
    -11.993  0.0000E+00  0.2000E+00
    -11.921  0.0000E+00  0.2000E+00
    -11.849  0.0000E+00  0.2000E+00
    -11.778  0.0000E+00  0.2000E+00
    -11.706  0.0000E+00  0.2000E+00
    -11.634  0.0000E+00  0.2000E+00
    -11.562  0.0000E+00  0.2000E+00
    -11.490  0.0000E+00  0.2000E+00
    -11.419  0.0000E+00  0.2000E+00
    -11.347  0.0000E+00  0.2000E+00
    -11.275  0.0000E+00  0.2000E+00
    -11.203  0.0000E+00  0.2000E+00
    -11.131  0.0000E+00  0.2000E+00
    -11.060  0.0000E+00  0.2000E+00
    -10.988  0.0000E+00  0.2000E+00
    -10.916  0.0000E+00  0.2000E+00
    -10.844  0.0000E+00  0.2000E+00
    -10.772  0.0000E+00  0.2000E+00
    -10.701  0.0000E+00  0.2000E+00
    -10.629  0.0000E+00  0.2000E+00
    -10.557  0.0000E+00  0.2000E+00
    -10.485  0.9279E-15  0.2000E+00
    -10.413  0.5312E-13  0.2000E+00
    -10.342  0.2312E-11  0.2000E+00
    -10.270  0.7815E-10  0.2000E+00
    -10.198  0.2049E-08  0.2000E+00
    -10.126  0.4172E-07  0.2000E+00
    -10.054  0.6599E-06  0.2000E+00
     -9.983  0.8117E-05  0.2000E+00
     -9.911  0.7774E-04  0.2000E+00
     -9.839  0.5810E-03  0.2000E+00
     -9.767  0.3396E-02  0.2003E+00
     -9.696  0.1559E-01  0.2014E+00
     -9.624  0.5651E-01  0.2055E+00
     -9.552  0.1629E+00  0.2172E+00
     -9.480  0.3771E+00  0.2442E+00
     -9.408  0.7085E+00  0.2951E+00
     -9.337  0.1092E+01  0.3735E+00
     -9.265  0.1391E+01  0.4733E+00
     -9.193  0.1467E+01  0.5787E+00
     -9.121  0.1278E+01  0.6704E+00
     -9.049  0.9108E+00  0.7358E+00
     -8.978  0.5263E+00  0.7736E+00
     -8.906  0.2442E+00  0.7911E+00
     -8.834  0.9025E-01  0.7976E+00
     -8.762  0.2641E-01  0.7995E+00
     -8.690  0.6089E-02  0.7999E+00
     -8.619  0.1103E-02  0.8000E+00
     -8.547  0.1563E-03  0.8000E+00
     -8.475  0.1733E-04  0.8000E+00
     -8.403  0.1498E-05  0.8000E+00
     -8.331  0.1010E-06  0.8000E+00
     -8.260  0.5295E-08  0.8000E+00
     -8.188  0.2159E-09  0.8000E+00
     -8.116  0.6844E-11  0.8000E+00
     -8.044  0.1687E-12  0.8000E+00
     -7.972  0.3093E-14  0.8000E+00
     -7.901  0.0000E+00  0.8000E+00
     -7.829  0.0000E+00  0.8000E+00
     -7.757  0.0000E+00  0.8000E+00
     -7.685  0.0000E+00  0.8000E+00
     -7.614  0.0000E+00  0.8000E+00
     -7.542  0.0000E+00  0.8000E+00
     -7.470  0.0000E+00  0.8000E+00
     -7.398  0.0000E+00  0.8000E+00
     -7.326  0.0000E+00  0.8000E+00
     -7.255  0.0000E+00  0.8000E+00
     -7.183  0.0000E+00  0.8000E+00
     -7.111  0.0000E+00  0.8000E+00
     -7.039  0.0000E+00  0.8000E+00
     -6.967  0.0000E+00  0.8000E+00
     -6.896  0.0000E+00  0.8000E+00
     -6.824  0.0000E+00  0.8000E+00
     -6.752  0.0000E+00  0.8000E+00
     -6.680  0.0000E+00  0.8000E+00
     -6.608  0.0000E+00  0.8000E+00
     -6.537  0.0000E+00  0.8000E+00
     -6.465  0.0000E+00  0.8000E+00
     -6.393  0.0000E+00  0.8000E+00
     -6.321  0.0000E+00  0.8000E+00
     -6.249  0.0000E+00  0.8000E+00
     -6.178  0.0000E+00  0.8000E+00
     -6.106  0.0000E+00  0.8000E+00
     -6.034  0.0000E+00  0.8000E+00
     -5.962  0.0000E+00  0.8000E+00
     -5.890  0.0000E+00  0.8000E+00
     -5.819  0.0000E+00  0.8000E+00
     -5.747  0.0000E+00  0.8000E+00
     -5.675  0.0000E+00  0.8000E+00
     -5.603  0.0000E+00  0.8000E+00
     -5.532  0.0000E+00  0.8000E+00
     -5.460  0.0000E+00  0.8000E+00
     -5.388  0.0000E+00  0.8000E+00
     -5.316  0.0000E+00  0.8000E+00
     -5.244  0.0000E+00  0.8000E+00
     -5.173  0.0000E+00  0.8000E+00
     -5.101  0.0000E+00  0.8000E+00
     -5.029  0.0000E+00  0.8000E+00
     -4.957  0.0000E+00  0.8000E+00
     -4.885  0.0000E+00  0.8000E+00
     -4.814  0.0000E+00  0.8000E+00
     -4.742  0.0000E+00  0.8000E+00
     -4.670  0.0000E+00  0.8000E+00
     -4.598  0.0000E+00  0.8000E+00
     -4.526  0.0000E+00  0.8000E+00
     -4.455  0.0000E+00  0.8000E+00
     -4.383  0.0000E+00  0.8000E+00
     -4.311  0.0000E+00  0.8000E+00
     -4.239  0.0000E+00  0.8000E+00
     -4.167  0.0000E+00  0.8000E+00
     -4.096  0.0000E+00  0.8000E+00
     -4.024  0.0000E+00  0.8000E+00
     -3.952  0.0000E+00  0.8000E+00
     -3.880  0.0000E+00  0.8000E+00
     -3.808  0.0000E+00  0.8000E+00
     -3.737  0.0000E+00  0.8000E+00
     -3.665  0.0000E+00  0.8000E+00
     -3.593  0.0000E+00  0.8000E+00
     -3.521  0.0000E+00  0.8000E+00
     -3.450  0.0000E+00  0.8000E+00
     -3.378  0.0000E+00  0.8000E+00
     -3.306  0.0000E+00  0.8000E+00
     -3.234  0.0000E+00  0.8000E+00
     -3.162  0.0000E+00  0.8000E+00
     -3.091  0.0000E+00  0.8000E+00
     -3.019  0.0000E+00  0.8000E+00
     -2.947  0.0000E+00  0.8000E+00
     -2.875  0.0000E+00  0.8000E+00
     -2.803  0.0000E+00  0.8000E+00
     -2.732  0.0000E+00  0.8000E+00
     -2.660  0.0000E+00  0.8000E+00
     -2.588  0.0000E+00  0.8000E+00
     -2.516  0.0000E+00  0.8000E+00
     -2.444  0.0000E+00  0.8000E+00
     -2.373  0.0000E+00  0.8000E+00
     -2.301  0.0000E+00  0.8000E+00
     -2.229  0.0000E+00  0.8000E+00
     -2.157  0.0000E+00  0.8000E+00
     -2.085  0.0000E+00  0.8000E+00
     -2.014  0.0000E+00  0.8000E+00
     -1.942  0.0000E+00  0.8000E+00
     -1.870  0.0000E+00  0.8000E+00
     -1.798  0.0000E+00  0.8000E+00
     -1.726  0.0000E+00  0.8000E+00
     -1.655  0.0000E+00  0.8000E+00
     -1.583  0.0000E+00  0.8000E+00
     -1.511  0.3866E-16  0.8000E+00
     -1.439  0.4949E-14  0.8000E+00
     -1.368  0.2482E-12  0.8000E+00
     -1.296  0.9741E-11  0.8000E+00
     -1.224  0.2965E-09  0.8000E+00
     -1.152  0.6998E-08  0.8000E+00
     -1.080  0.1281E-06  0.8000E+00
     -1.009  0.1821E-05  0.8000E+00
     -0.937  0.2008E-04  0.8000E+00
     -0.865  0.1719E-03  0.8000E+00
     -0.793  0.1143E-02  0.8001E+00
     -0.721  0.5901E-02  0.8005E+00
     -0.650  0.2367E-01  0.8022E+00
     -0.578  0.7374E-01  0.8075E+00
     -0.506  0.1785E+00  0.8203E+00
     -0.434  0.3358E+00  0.8444E+00
     -0.362  0.4910E+00  0.8797E+00
     -0.291  0.5580E+00  0.9198E+00
     -0.219  0.4928E+00  0.9551E+00
     -0.147  0.3383E+00  0.9794E+00
     -0.075  0.1804E+00  0.9924E+00
     -0.003  0.7486E-01  0.9977E+00
      0.068  0.2457E-01  0.9995E+00
      0.140  0.8932E-02  0.1000E+01
      0.212  0.1495E-01  0.1001E+01
      0.284  0.5191E-01  0.1005E+01
      0.356  0.1548E+00  0.1016E+01
      0.427  0.3717E+00  0.1043E+01
      0.499  0.7212E+00  0.1095E+01
      0.571  0.1137E+01  0.1176E+01
      0.643  0.1459E+01  0.1281E+01
      0.714  0.1522E+01  0.1390E+01
      0.786  0.1285E+01  0.1482E+01
      0.858  0.8715E+00  0.1545E+01
      0.930  0.4719E+00  0.1579E+01
      1.002  0.2028E+00  0.1593E+01
      1.073  0.6879E-01  0.1598E+01
      1.145  0.1835E-01  0.1600E+01
      1.217  0.3838E-02  0.1600E+01
      1.289  0.6281E-03  0.1600E+01
      1.361  0.8030E-04  0.1600E+01
      1.432  0.8011E-05  0.1600E+01
      1.504  0.6230E-06  0.1600E+01
      1.576  0.3775E-07  0.1600E+01
      1.648  0.1780E-08  0.1600E+01
      1.720  0.6534E-10  0.1600E+01
      1.791  0.1865E-11  0.1600E+01
      1.863  0.4160E-13  0.1600E+01
      1.935  0.6186E-15  0.1600E+01
      2.007  0.0000E+00  0.1600E+01
      2.079  0.0000E+00  0.1600E+01
      2.150  0.0000E+00  0.1600E+01
      2.222  0.0000E+00  0.1600E+01
      2.294  0.0000E+00  0.1600E+01
      2.366  0.0000E+00  0.1600E+01
      2.438  0.0000E+00  0.1600E+01
      2.509  0.0000E+00  0.1600E+01
      2.581  0.0000E+00  0.1600E+01
      2.653  0.0000E+00  0.1600E+01
      2.725  0.0000E+00  0.1600E+01
