   5   5   0   0
  0.2039264E+03  0.1013919E-08  0.9847818E-09  0.1021553E-08  0.5000000E-15
  1.000000000000000E-004
  CAR 
 unknown system                          
      2.71392425    -18.91923160  301     -8.24680429      1.00000000
    -18.919  0.0000E+00  0.0000E+00
    -18.847  0.0000E+00  0.0000E+00
    -18.775  0.0000E+00  0.0000E+00
    -18.703  0.0000E+00  0.0000E+00
    -18.631  0.0000E+00  0.0000E+00
    -18.559  0.0000E+00  0.0000E+00
    -18.487  0.0000E+00  0.0000E+00
    -18.414  0.0000E+00  0.0000E+00
    -18.342  0.0000E+00  0.0000E+00
    -18.270  0.0000E+00  0.0000E+00
    -18.198  0.0000E+00  0.0000E+00
    -18.126  0.0000E+00  0.0000E+00
    -18.054  0.1296E-13  0.9326E-15
    -17.982  0.7080E-12  0.5189E-13
    -17.910  0.3050E-10  0.2247E-11
    -17.838  0.1017E-08  0.7546E-10
    -17.765  0.2628E-07  0.1967E-08
    -17.693  0.5259E-06  0.3981E-07
    -17.621  0.8153E-05  0.6265E-06
    -17.549  0.9796E-04  0.7676E-05
    -17.477  0.9124E-03  0.7334E-04
    -17.405  0.6589E-02  0.5475E-03
    -17.333  0.3690E-01  0.3203E-02
    -17.261  0.1603E+00  0.1474E-01
    -17.189  0.5402E+00  0.5361E-01
    -17.116  0.1413E+01  0.1553E+00
    -17.044  0.2867E+01  0.3616E+00
    -16.972  0.4515E+01  0.6865E+00
    -16.900  0.5520E+01  0.1084E+01
    -16.828  0.5239E+01  0.1461E+01
    -16.756  0.3859E+01  0.1738E+01
    -16.684  0.2207E+01  0.1897E+01
    -16.612  0.9795E+00  0.1968E+01
    -16.540  0.3374E+00  0.1992E+01
    -16.467  0.9019E-01  0.1998E+01
    -16.395  0.1871E-01  0.2000E+01
    -16.323  0.3010E-02  0.2000E+01
    -16.251  0.3757E-03  0.2000E+01
    -16.179  0.3637E-04  0.2000E+01
    -16.107  0.2730E-05  0.2000E+01
    -16.035  0.1588E-06  0.2000E+01
    -15.963  0.7162E-08  0.2000E+01
    -15.891  0.2503E-09  0.2000E+01
    -15.818  0.6776E-11  0.2000E+01
    -15.746  0.1427E-12  0.2000E+01
    -15.674  0.1853E-14  0.2000E+01
    -15.602  0.0000E+00  0.2000E+01
    -15.530  0.0000E+00  0.2000E+01
    -15.458  0.0000E+00  0.2000E+01
    -15.386  0.0000E+00  0.2000E+01
    -15.314  0.0000E+00  0.2000E+01
    -15.242  0.0000E+00  0.2000E+01
    -15.169  0.0000E+00  0.2000E+01
    -15.097  0.0000E+00  0.2000E+01
    -15.025  0.0000E+00  0.2000E+01
    -14.953  0.0000E+00  0.2000E+01
    -14.881  0.0000E+00  0.2000E+01
    -14.809  0.0000E+00  0.2000E+01
    -14.737  0.0000E+00  0.2000E+01
    -14.665  0.0000E+00  0.2000E+01
    -14.593  0.0000E+00  0.2000E+01
    -14.520  0.0000E+00  0.2000E+01
    -14.448  0.0000E+00  0.2000E+01
    -14.376  0.0000E+00  0.2000E+01
    -14.304  0.0000E+00  0.2000E+01
    -14.232  0.0000E+00  0.2000E+01
    -14.160  0.0000E+00  0.2000E+01
    -14.088  0.0000E+00  0.2000E+01
    -14.016  0.0000E+00  0.2000E+01
    -13.944  0.0000E+00  0.2000E+01
    -13.871  0.0000E+00  0.2000E+01
    -13.799  0.0000E+00  0.2000E+01
    -13.727  0.0000E+00  0.2000E+01
    -13.655  0.0000E+00  0.2000E+01
    -13.583  0.0000E+00  0.2000E+01
    -13.511  0.0000E+00  0.2000E+01
    -13.439  0.0000E+00  0.2000E+01
    -13.367  0.0000E+00  0.2000E+01
    -13.295  0.0000E+00  0.2000E+01
    -13.223  0.0000E+00  0.2000E+01
    -13.150  0.0000E+00  0.2000E+01
    -13.078  0.0000E+00  0.2000E+01
    -13.006  0.0000E+00  0.2000E+01
    -12.934  0.0000E+00  0.2000E+01
    -12.862  0.0000E+00  0.2000E+01
    -12.790  0.0000E+00  0.2000E+01
    -12.718  0.0000E+00  0.2000E+01
    -12.646  0.0000E+00  0.2000E+01
    -12.574  0.0000E+00  0.2000E+01
    -12.501  0.0000E+00  0.2000E+01
    -12.429  0.0000E+00  0.2000E+01
    -12.357  0.0000E+00  0.2000E+01
    -12.285  0.0000E+00  0.2000E+01
    -12.213  0.0000E+00  0.2000E+01
    -12.141  0.0000E+00  0.2000E+01
    -12.069  0.0000E+00  0.2000E+01
    -11.997  0.0000E+00  0.2000E+01
    -11.925  0.0000E+00  0.2000E+01
    -11.852  0.0000E+00  0.2000E+01
    -11.780  0.0000E+00  0.2000E+01
    -11.708  0.0000E+00  0.2000E+01
    -11.636  0.0000E+00  0.2000E+01
    -11.564  0.0000E+00  0.2000E+01
    -11.492  0.0000E+00  0.2000E+01
    -11.420  0.0000E+00  0.2000E+01
    -11.348  0.0000E+00  0.2000E+01
    -11.276  0.0000E+00  0.2000E+01
    -11.203  0.0000E+00  0.2000E+01
    -11.131  0.0000E+00  0.2000E+01
    -11.059  0.0000E+00  0.2000E+01
    -10.987  0.0000E+00  0.2000E+01
    -10.915  0.0000E+00  0.2000E+01
    -10.843  0.0000E+00  0.2000E+01
    -10.771  0.0000E+00  0.2000E+01
    -10.699  0.0000E+00  0.2000E+01
    -10.627  0.0000E+00  0.2000E+01
    -10.554  0.2623E-14  0.2000E+01
    -10.482  0.1615E-12  0.2000E+01
    -10.410  0.7661E-11  0.2000E+01
    -10.338  0.2824E-09  0.2000E+01
    -10.266  0.8079E-08  0.2000E+01
    -10.194  0.1796E-06  0.2000E+01
    -10.122  0.3103E-05  0.2000E+01
    -10.050  0.4174E-04  0.2000E+01
     -9.978  0.4375E-03  0.2000E+01
     -9.905  0.3578E-02  0.2000E+01
     -9.833  0.2288E-01  0.2002E+01
     -9.761  0.1147E+00  0.2010E+01
     -9.689  0.4516E+00  0.2043E+01
     -9.617  0.1404E+01  0.2144E+01
     -9.545  0.3462E+01  0.2393E+01
     -9.473  0.6818E+01  0.2883E+01
     -9.401  0.1081E+02  0.3661E+01
     -9.329  0.1393E+02  0.4664E+01
     -9.256  0.1472E+02  0.5723E+01
     -9.184  0.1283E+02  0.6646E+01
     -9.112  0.9237E+01  0.7311E+01
     -9.040  0.5472E+01  0.7705E+01
     -8.968  0.2646E+01  0.7895E+01
     -8.896  0.1034E+01  0.7970E+01
     -8.824  0.3233E+00  0.7993E+01
     -8.752  0.8028E-01  0.7999E+01
     -8.680  0.1572E-01  0.8000E+01
     -8.607  0.2418E-02  0.8000E+01
     -8.535  0.2910E-03  0.8000E+01
     -8.463  0.2733E-04  0.8000E+01
     -8.391  0.2001E-05  0.8000E+01
     -8.319  0.1140E-06  0.8000E+01
     -8.247  0.5049E-08  0.8000E+01
     -8.175  0.1738E-09  0.8000E+01
     -8.103  0.4644E-11  0.8000E+01
     -8.031  0.9714E-13  0.8000E+01
     -7.958  0.1235E-14  0.8000E+01
     -7.886  0.0000E+00  0.8000E+01
     -7.814  0.0000E+00  0.8000E+01
     -7.742  0.0000E+00  0.8000E+01
     -7.670  0.0000E+00  0.8000E+01
     -7.598  0.0000E+00  0.8000E+01
     -7.526  0.0000E+00  0.8000E+01
     -7.454  0.0000E+00  0.8000E+01
     -7.382  0.0000E+00  0.8000E+01
     -7.309  0.0000E+00  0.8000E+01
     -7.237  0.0000E+00  0.8000E+01
     -7.165  0.0000E+00  0.8000E+01
     -7.093  0.0000E+00  0.8000E+01
     -7.021  0.0000E+00  0.8000E+01
     -6.949  0.0000E+00  0.8000E+01
     -6.877  0.0000E+00  0.8000E+01
     -6.805  0.0000E+00  0.8000E+01
     -6.733  0.0000E+00  0.8000E+01
     -6.660  0.0000E+00  0.8000E+01
     -6.588  0.0000E+00  0.8000E+01
     -6.516  0.0000E+00  0.8000E+01
     -6.444  0.0000E+00  0.8000E+01
     -6.372  0.0000E+00  0.8000E+01
     -6.300  0.0000E+00  0.8000E+01
     -6.228  0.0000E+00  0.8000E+01
     -6.156  0.0000E+00  0.8000E+01
     -6.084  0.0000E+00  0.8000E+01
     -6.011  0.0000E+00  0.8000E+01
     -5.939  0.0000E+00  0.8000E+01
     -5.867  0.0000E+00  0.8000E+01
     -5.795  0.0000E+00  0.8000E+01
     -5.723  0.0000E+00  0.8000E+01
     -5.651  0.0000E+00  0.8000E+01
     -5.579  0.0000E+00  0.8000E+01
     -5.507  0.0000E+00  0.8000E+01
     -5.435  0.0000E+00  0.8000E+01
     -5.362  0.0000E+00  0.8000E+01
     -5.290  0.0000E+00  0.8000E+01
     -5.218  0.0000E+00  0.8000E+01
     -5.146  0.0000E+00  0.8000E+01
     -5.074  0.0000E+00  0.8000E+01
     -5.002  0.0000E+00  0.8000E+01
     -4.930  0.0000E+00  0.8000E+01
     -4.858  0.0000E+00  0.8000E+01
     -4.786  0.0000E+00  0.8000E+01
     -4.713  0.0000E+00  0.8000E+01
     -4.641  0.0000E+00  0.8000E+01
     -4.569  0.0000E+00  0.8000E+01
     -4.497  0.0000E+00  0.8000E+01
     -4.425  0.0000E+00  0.8000E+01
     -4.353  0.0000E+00  0.8000E+01
     -4.281  0.0000E+00  0.8000E+01
     -4.209  0.0000E+00  0.8000E+01
     -4.137  0.0000E+00  0.8000E+01
     -4.064  0.0000E+00  0.8000E+01
     -3.992  0.0000E+00  0.8000E+01
     -3.920  0.0000E+00  0.8000E+01
     -3.848  0.0000E+00  0.8000E+01
     -3.776  0.0000E+00  0.8000E+01
     -3.704  0.0000E+00  0.8000E+01
     -3.632  0.0000E+00  0.8000E+01
     -3.560  0.0000E+00  0.8000E+01
     -3.488  0.0000E+00  0.8000E+01
     -3.415  0.0000E+00  0.8000E+01
     -3.343  0.0000E+00  0.8000E+01
     -3.271  0.0000E+00  0.8000E+01
     -3.199  0.0000E+00  0.8000E+01
     -3.127  0.0000E+00  0.8000E+01
     -3.055  0.0000E+00  0.8000E+01
     -2.983  0.0000E+00  0.8000E+01
     -2.911  0.0000E+00  0.8000E+01
     -2.839  0.0000E+00  0.8000E+01
     -2.766  0.0000E+00  0.8000E+01
     -2.694  0.0000E+00  0.8000E+01
     -2.622  0.0000E+00  0.8000E+01
     -2.550  0.0000E+00  0.8000E+01
     -2.478  0.0000E+00  0.8000E+01
     -2.406  0.0000E+00  0.8000E+01
     -2.334  0.0000E+00  0.8000E+01
     -2.262  0.0000E+00  0.8000E+01
     -2.190  0.0000E+00  0.8000E+01
     -2.117  0.0000E+00  0.8000E+01
     -2.045  0.0000E+00  0.8000E+01
     -1.973  0.0000E+00  0.8000E+01
     -1.901  0.0000E+00  0.8000E+01
     -1.829  0.0000E+00  0.8000E+01
     -1.757  0.0000E+00  0.8000E+01
     -1.685  0.0000E+00  0.8000E+01
     -1.613  0.0000E+00  0.8000E+01
     -1.541  0.0000E+00  0.8000E+01
     -1.468  0.8027E-14  0.8000E+01
     -1.396  0.4525E-12  0.8000E+01
     -1.324  0.1993E-10  0.8000E+01
     -1.252  0.6803E-09  0.8000E+01
     -1.180  0.1801E-07  0.8000E+01
     -1.108  0.3697E-06  0.8000E+01
     -1.036  0.5886E-05  0.8000E+01
     -0.964  0.7270E-04  0.8000E+01
     -0.892  0.6967E-03  0.8000E+01
     -0.819  0.5181E-02  0.8000E+01
     -0.747  0.2991E-01  0.8003E+01
     -0.675  0.1340E+00  0.8012E+01
     -0.603  0.4662E+00  0.8046E+01
     -0.531  0.1260E+01  0.8136E+01
     -0.459  0.2642E+01  0.8327E+01
     -0.387  0.4305E+01  0.8636E+01
     -0.315  0.5446E+01  0.9028E+01
     -0.243  0.5352E+01  0.9413E+01
     -0.170  0.4084E+01  0.9707E+01
     -0.098  0.2420E+01  0.9881E+01
     -0.026  0.1114E+01  0.9961E+01
      0.046  0.4022E+00  0.9990E+01
      0.118  0.1378E+00  0.1000E+02
      0.190  0.1556E+00  0.1001E+02
      0.262  0.5021E+00  0.1005E+02
      0.334  0.1498E+01  0.1016E+02
      0.406  0.3611E+01  0.1042E+02
      0.478  0.7037E+01  0.1092E+02
      0.551  0.1115E+02  0.1172E+02
      0.623  0.1442E+02  0.1276E+02
      0.695  0.1518E+02  0.1385E+02
      0.767  0.1295E+02  0.1479E+02
      0.839  0.8894E+01  0.1543E+02
      0.911  0.4880E+01  0.1578E+02
      0.983  0.2125E+01  0.1593E+02
      1.055  0.7301E+00  0.1598E+02
      1.127  0.1972E+00  0.1600E+02
      1.200  0.4175E-01  0.1600E+02
      1.272  0.6910E-02  0.1600E+02
      1.344  0.8928E-03  0.1600E+02
      1.416  0.8994E-04  0.1600E+02
      1.488  0.7058E-05  0.1600E+02
      1.560  0.4311E-06  0.1600E+02
      1.632  0.2048E-07  0.1600E+02
      1.704  0.7563E-09  0.1600E+02
      1.776  0.2170E-10  0.1600E+02
      1.849  0.4840E-12  0.1600E+02
      1.921  0.7791E-14  0.1600E+02
      1.993  0.0000E+00  0.1600E+02
      2.065  0.0000E+00  0.1600E+02
      2.137  0.0000E+00  0.1600E+02
      2.209  0.0000E+00  0.1600E+02
      2.281  0.0000E+00  0.1600E+02
      2.353  0.0000E+00  0.1600E+02
      2.425  0.0000E+00  0.1600E+02
      2.498  0.0000E+00  0.1600E+02
      2.570  0.0000E+00  0.1600E+02
      2.642  0.0000E+00  0.1600E+02
      2.714  0.0000E+00  0.1600E+02
      2.70812679    -18.92303079  301     -8.25158930      1.00000000
    -18.923  0.0000E+00  0.0000E+00
    -18.851  0.0000E+00  0.0000E+00
    -18.779  0.0000E+00  0.0000E+00
    -18.707  0.0000E+00  0.0000E+00
    -18.635  0.0000E+00  0.0000E+00
    -18.563  0.0000E+00  0.0000E+00
    -18.490  0.0000E+00  0.0000E+00
    -18.418  0.0000E+00  0.0000E+00
    -18.346  0.0000E+00  0.0000E+00
    -18.274  0.0000E+00  0.0000E+00
    -18.202  0.0000E+00  0.0000E+00
    -18.130  0.0000E+00  0.0000E+00
    -18.058  0.1386E-14  0.9992E-16
    -17.986  0.7803E-13  0.5726E-14
    -17.914  0.3363E-11  0.2482E-12
    -17.841  0.1121E-09  0.8332E-11
    -17.769  0.2892E-08  0.2169E-09
    -17.697  0.5775E-07  0.4381E-08
    -17.625  0.8924E-06  0.6873E-07
    -17.553  0.1068E-04  0.8387E-06
    -17.481  0.9894E-04  0.7973E-05
    -17.409  0.7101E-03  0.5918E-04
    -17.337  0.3949E-02  0.3439E-03
    -17.265  0.1701E-01  0.1571E-02
    -17.193  0.5682E-01  0.5667E-02
    -17.120  0.1471E+00  0.1627E-01
    -17.048  0.2952E+00  0.3756E-01
    -16.976  0.4593E+00  0.7067E-01
    -16.904  0.5541E+00  0.1106E+00
    -16.832  0.5184E+00  0.1480E+00
    -16.760  0.3761E+00  0.1751E+00
    -16.688  0.2115E+00  0.1904E+00
    -16.616  0.9223E-01  0.1970E+00
    -16.544  0.3118E-01  0.1993E+00
    -16.471  0.8169E-02  0.1999E+00
    -16.399  0.1659E-02  0.2000E+00
    -16.327  0.2610E-03  0.2000E+00
    -16.255  0.3181E-04  0.2000E+00
    -16.183  0.3002E-05  0.2000E+00
    -16.111  0.2195E-06  0.2000E+00
    -16.039  0.1242E-07  0.2000E+00
    -15.967  0.5438E-09  0.2000E+00
    -15.895  0.1843E-10  0.2000E+00
    -15.823  0.4832E-12  0.2000E+00
    -15.750  0.9854E-14  0.2000E+00
    -15.678  0.0000E+00  0.2000E+00
    -15.606  0.0000E+00  0.2000E+00
    -15.534  0.0000E+00  0.2000E+00
    -15.462  0.0000E+00  0.2000E+00
    -15.390  0.0000E+00  0.2000E+00
    -15.318  0.0000E+00  0.2000E+00
    -15.246  0.0000E+00  0.2000E+00
    -15.174  0.0000E+00  0.2000E+00
    -15.102  0.0000E+00  0.2000E+00
    -15.029  0.0000E+00  0.2000E+00
    -14.957  0.0000E+00  0.2000E+00
    -14.885  0.0000E+00  0.2000E+00
    -14.813  0.0000E+00  0.2000E+00
    -14.741  0.0000E+00  0.2000E+00
    -14.669  0.0000E+00  0.2000E+00
    -14.597  0.0000E+00  0.2000E+00
    -14.525  0.0000E+00  0.2000E+00
    -14.453  0.0000E+00  0.2000E+00
    -14.380  0.0000E+00  0.2000E+00
    -14.308  0.0000E+00  0.2000E+00
    -14.236  0.0000E+00  0.2000E+00
    -14.164  0.0000E+00  0.2000E+00
    -14.092  0.0000E+00  0.2000E+00
    -14.020  0.0000E+00  0.2000E+00
    -13.948  0.0000E+00  0.2000E+00
    -13.876  0.0000E+00  0.2000E+00
    -13.804  0.0000E+00  0.2000E+00
    -13.732  0.0000E+00  0.2000E+00
    -13.659  0.0000E+00  0.2000E+00
    -13.587  0.0000E+00  0.2000E+00
    -13.515  0.0000E+00  0.2000E+00
    -13.443  0.0000E+00  0.2000E+00
    -13.371  0.0000E+00  0.2000E+00
    -13.299  0.0000E+00  0.2000E+00
    -13.227  0.0000E+00  0.2000E+00
    -13.155  0.0000E+00  0.2000E+00
    -13.083  0.0000E+00  0.2000E+00
    -13.011  0.0000E+00  0.2000E+00
    -12.938  0.0000E+00  0.2000E+00
    -12.866  0.0000E+00  0.2000E+00
    -12.794  0.0000E+00  0.2000E+00
    -12.722  0.0000E+00  0.2000E+00
    -12.650  0.0000E+00  0.2000E+00
    -12.578  0.0000E+00  0.2000E+00
    -12.506  0.0000E+00  0.2000E+00
    -12.434  0.0000E+00  0.2000E+00
    -12.362  0.0000E+00  0.2000E+00
    -12.289  0.0000E+00  0.2000E+00
    -12.217  0.0000E+00  0.2000E+00
    -12.145  0.0000E+00  0.2000E+00
    -12.073  0.0000E+00  0.2000E+00
    -12.001  0.0000E+00  0.2000E+00
    -11.929  0.0000E+00  0.2000E+00
    -11.857  0.0000E+00  0.2000E+00
    -11.785  0.0000E+00  0.2000E+00
    -11.713  0.0000E+00  0.2000E+00
    -11.641  0.0000E+00  0.2000E+00
    -11.568  0.0000E+00  0.2000E+00
    -11.496  0.0000E+00  0.2000E+00
    -11.424  0.0000E+00  0.2000E+00
    -11.352  0.0000E+00  0.2000E+00
    -11.280  0.0000E+00  0.2000E+00
    -11.208  0.0000E+00  0.2000E+00
    -11.136  0.0000E+00  0.2000E+00
    -11.064  0.0000E+00  0.2000E+00
    -10.992  0.0000E+00  0.2000E+00
    -10.920  0.0000E+00  0.2000E+00
    -10.847  0.0000E+00  0.2000E+00
    -10.775  0.0000E+00  0.2000E+00
    -10.703  0.0000E+00  0.2000E+00
    -10.631  0.0000E+00  0.2000E+00
    -10.559  0.6159E-15  0.2000E+00
    -10.487  0.3422E-13  0.2000E+00
    -10.415  0.1559E-11  0.2000E+00
    -10.343  0.5498E-10  0.2000E+00
    -10.271  0.1501E-08  0.2000E+00
    -10.198  0.3177E-07  0.2000E+00
    -10.126  0.5212E-06  0.2000E+00
    -10.054  0.6637E-05  0.2000E+00
     -9.982  0.6567E-04  0.2000E+00
     -9.910  0.5058E-03  0.2000E+00
     -9.838  0.3039E-02  0.2003E+00
     -9.766  0.1429E-01  0.2013E+00
     -9.694  0.5286E-01  0.2051E+00
     -9.622  0.1546E+00  0.2163E+00
     -9.550  0.3607E+00  0.2423E+00
     -9.477  0.6787E+00  0.2912E+00
     -9.405  0.1043E+01  0.3664E+00
     -9.333  0.1327E+01  0.4621E+00
     -9.261  0.1413E+01  0.5640E+00
     -9.189  0.1265E+01  0.6552E+00
     -9.117  0.9479E+00  0.7235E+00
     -9.045  0.5882E+00  0.7659E+00
     -8.973  0.2982E+00  0.7874E+00
     -8.901  0.1218E+00  0.7962E+00
     -8.828  0.3965E-01  0.7991E+00
     -8.756  0.1020E-01  0.7998E+00
     -8.684  0.2061E-02  0.8000E+00
     -8.612  0.3255E-03  0.8000E+00
     -8.540  0.4007E-04  0.8000E+00
     -8.468  0.3837E-05  0.8000E+00
     -8.396  0.2853E-06  0.8000E+00
     -8.324  0.1646E-07  0.8000E+00
     -8.252  0.7357E-09  0.8000E+00
     -8.180  0.2547E-10  0.8000E+00
     -8.107  0.6827E-12  0.8000E+00
     -8.035  0.1417E-13  0.8000E+00
     -7.963  0.0000E+00  0.8000E+00
     -7.891  0.0000E+00  0.8000E+00
     -7.819  0.0000E+00  0.8000E+00
     -7.747  0.0000E+00  0.8000E+00
     -7.675  0.0000E+00  0.8000E+00
     -7.603  0.0000E+00  0.8000E+00
     -7.531  0.0000E+00  0.8000E+00
     -7.459  0.0000E+00  0.8000E+00
     -7.386  0.0000E+00  0.8000E+00
     -7.314  0.0000E+00  0.8000E+00
     -7.242  0.0000E+00  0.8000E+00
     -7.170  0.0000E+00  0.8000E+00
     -7.098  0.0000E+00  0.8000E+00
     -7.026  0.0000E+00  0.8000E+00
     -6.954  0.0000E+00  0.8000E+00
     -6.882  0.0000E+00  0.8000E+00
     -6.810  0.0000E+00  0.8000E+00
     -6.737  0.0000E+00  0.8000E+00
     -6.665  0.0000E+00  0.8000E+00
     -6.593  0.0000E+00  0.8000E+00
     -6.521  0.0000E+00  0.8000E+00
     -6.449  0.0000E+00  0.8000E+00
     -6.377  0.0000E+00  0.8000E+00
     -6.305  0.0000E+00  0.8000E+00
     -6.233  0.0000E+00  0.8000E+00
     -6.161  0.0000E+00  0.8000E+00
     -6.089  0.0000E+00  0.8000E+00
     -6.016  0.0000E+00  0.8000E+00
     -5.944  0.0000E+00  0.8000E+00
     -5.872  0.0000E+00  0.8000E+00
     -5.800  0.0000E+00  0.8000E+00
     -5.728  0.0000E+00  0.8000E+00
     -5.656  0.0000E+00  0.8000E+00
     -5.584  0.0000E+00  0.8000E+00
     -5.512  0.0000E+00  0.8000E+00
     -5.440  0.0000E+00  0.8000E+00
     -5.368  0.0000E+00  0.8000E+00
     -5.295  0.0000E+00  0.8000E+00
     -5.223  0.0000E+00  0.8000E+00
     -5.151  0.0000E+00  0.8000E+00
     -5.079  0.0000E+00  0.8000E+00
     -5.007  0.0000E+00  0.8000E+00
     -4.935  0.0000E+00  0.8000E+00
     -4.863  0.0000E+00  0.8000E+00
     -4.791  0.0000E+00  0.8000E+00
     -4.719  0.0000E+00  0.8000E+00
     -4.646  0.0000E+00  0.8000E+00
     -4.574  0.0000E+00  0.8000E+00
     -4.502  0.0000E+00  0.8000E+00
     -4.430  0.0000E+00  0.8000E+00
     -4.358  0.0000E+00  0.8000E+00
     -4.286  0.0000E+00  0.8000E+00
     -4.214  0.0000E+00  0.8000E+00
     -4.142  0.0000E+00  0.8000E+00
     -4.070  0.0000E+00  0.8000E+00
     -3.998  0.0000E+00  0.8000E+00
     -3.925  0.0000E+00  0.8000E+00
     -3.853  0.0000E+00  0.8000E+00
     -3.781  0.0000E+00  0.8000E+00
     -3.709  0.0000E+00  0.8000E+00
     -3.637  0.0000E+00  0.8000E+00
     -3.565  0.0000E+00  0.8000E+00
     -3.493  0.0000E+00  0.8000E+00
     -3.421  0.0000E+00  0.8000E+00
     -3.349  0.0000E+00  0.8000E+00
     -3.276  0.0000E+00  0.8000E+00
     -3.204  0.0000E+00  0.8000E+00
     -3.132  0.0000E+00  0.8000E+00
     -3.060  0.0000E+00  0.8000E+00
     -2.988  0.0000E+00  0.8000E+00
     -2.916  0.0000E+00  0.8000E+00
     -2.844  0.0000E+00  0.8000E+00
     -2.772  0.0000E+00  0.8000E+00
     -2.700  0.0000E+00  0.8000E+00
     -2.628  0.0000E+00  0.8000E+00
     -2.555  0.0000E+00  0.8000E+00
     -2.483  0.0000E+00  0.8000E+00
     -2.411  0.0000E+00  0.8000E+00
     -2.339  0.0000E+00  0.8000E+00
     -2.267  0.0000E+00  0.8000E+00
     -2.195  0.0000E+00  0.8000E+00
     -2.123  0.0000E+00  0.8000E+00
     -2.051  0.0000E+00  0.8000E+00
     -1.979  0.0000E+00  0.8000E+00
     -1.907  0.0000E+00  0.8000E+00
     -1.834  0.0000E+00  0.8000E+00
     -1.762  0.0000E+00  0.8000E+00
     -1.690  0.0000E+00  0.8000E+00
     -1.618  0.0000E+00  0.8000E+00
     -1.546  0.0000E+00  0.8000E+00
     -1.474  0.2310E-15  0.8000E+00
     -1.402  0.1617E-13  0.8000E+00
     -1.330  0.7696E-12  0.8000E+00
     -1.258  0.2841E-10  0.8000E+00
     -1.185  0.8116E-09  0.8000E+00
     -1.113  0.1794E-07  0.8000E+00
     -1.041  0.3071E-06  0.8000E+00
     -0.969  0.4068E-05  0.8000E+00
     -0.897  0.4174E-04  0.8000E+00
     -0.825  0.3318E-03  0.8000E+00
     -0.753  0.2043E-02  0.8002E+00
     -0.681  0.9750E-02  0.8009E+00
     -0.609  0.3606E-01  0.8035E+00
     -0.537  0.1034E+00  0.8109E+00
     -0.464  0.2299E+00  0.8275E+00
     -0.392  0.3962E+00  0.8561E+00
     -0.320  0.5296E+00  0.8943E+00
     -0.248  0.5490E+00  0.9338E+00
     -0.176  0.4413E+00  0.9657E+00
     -0.104  0.2751E+00  0.9855E+00
     -0.032  0.1330E+00  0.9951E+00
      0.040  0.5021E-01  0.9987E+00
      0.112  0.1686E-01  0.9999E+00
      0.184  0.1488E-01  0.1001E+01
      0.257  0.4523E-01  0.1004E+01
      0.329  0.1367E+00  0.1014E+01
      0.401  0.3351E+00  0.1038E+01
      0.473  0.6649E+00  0.1086E+01
      0.545  0.1074E+01  0.1164E+01
      0.617  0.1417E+01  0.1266E+01
      0.689  0.1523E+01  0.1376E+01
      0.761  0.1327E+01  0.1471E+01
      0.833  0.9292E+00  0.1538E+01
      0.906  0.5190E+00  0.1576E+01
      0.978  0.2295E+00  0.1592E+01
      1.050  0.7990E-01  0.1598E+01
      1.122  0.2181E-01  0.1600E+01
      1.194  0.4656E-02  0.1600E+01
      1.266  0.7753E-03  0.1600E+01
      1.338  0.1006E-03  0.1600E+01
      1.410  0.1015E-04  0.1600E+01
      1.482  0.7967E-06  0.1600E+01
      1.554  0.4859E-07  0.1600E+01
      1.627  0.2301E-08  0.1600E+01
      1.699  0.8460E-10  0.1600E+01
      1.771  0.2413E-11  0.1600E+01
      1.843  0.5374E-13  0.1600E+01
      1.915  0.6929E-15  0.1600E+01
      1.987  0.0000E+00  0.1600E+01
      2.059  0.0000E+00  0.1600E+01
      2.131  0.0000E+00  0.1600E+01
      2.203  0.0000E+00  0.1600E+01
      2.276  0.0000E+00  0.1600E+01
      2.348  0.0000E+00  0.1600E+01
      2.420  0.0000E+00  0.1600E+01
      2.492  0.0000E+00  0.1600E+01
      2.564  0.0000E+00  0.1600E+01
      2.636  0.0000E+00  0.1600E+01
      2.708  0.0000E+00  0.1600E+01
