    5    5   10    1
  0.2039264E+03  0.1013919E-08  0.9847818E-09  0.1021553E-08  0.5000000E-15
  1.000000000000000E-004
  CAR 
 unknown system                          
      8      4      8
 
  0.2500000E+00  0.2500000E+00  0.2500000E+00  0.2500000E+00
    1      -16.923031   1.000000
    2       -9.408973   1.000000
    3       -9.308594   1.000000
    4       -9.201357   1.000000
    5       -0.307027   0.000000
    6        0.545590   0.000000
    7        0.667551   0.000000
    8        0.684132   0.000000
 
 -0.2500000E+00  0.2500000E+00  0.2500000E+00  0.2500000E+00
    1      -16.923029   1.000000
    2       -9.409039   1.000000
    3       -9.308612   1.000000
    4       -9.201297   1.000000
    5       -0.307274   0.000000
    6        0.541012   0.000000
    7        0.659676   0.000000
    8        0.693653   0.000000
 
  0.2500000E+00 -0.2500000E+00  0.2500000E+00  0.2500000E+00
    1      -16.922972   1.000000
    2       -9.408933   1.000000
    3       -9.308680   1.000000
    4       -9.201313   1.000000
    5       -0.314256   0.000000
    6        0.565373   0.000000
    7        0.667055   0.000000
    8        0.708127   0.000000
 
 -0.2500000E+00 -0.2500000E+00  0.2500000E+00  0.2500000E+00
    1      -16.923030   1.000000
    2       -9.409002   1.000000
    3       -9.308605   1.000000
    4       -9.201323   1.000000
    5       -0.311643   0.000000
    6        0.557659   0.000000
    7        0.669945   0.000000
    8        0.698874   0.000000
