       N       E                     dE             d eps       ncg     rms          rms(c)
DAV:   1     0.918959482306E+01    0.91896E+01   -0.20740E+03    96   0.422E+02
DAV:   2    -0.241890067706E+02   -0.33379E+02   -0.33379E+02    64   0.112E+02
DAV:   3    -0.273684186504E+02   -0.31794E+01   -0.31794E+01    72   0.417E+01
DAV:   4    -0.274624619845E+02   -0.94043E-01   -0.94043E-01   128   0.690E+00
DAV:   5    -0.274624890084E+02   -0.27024E-04   -0.27024E-04   104   0.128E-01    0.863E+00
RMM:   6    -0.246290612626E+02    0.28334E+01   -0.52278E+00    64   0.140E+01    0.426E+00
RMM:   7    -0.241482583945E+02    0.48080E+00   -0.11571E+00    64   0.621E+00    0.227E+00
RMM:   8    -0.240027025725E+02    0.14556E+00   -0.16272E-01    64   0.287E+00    0.227E-01
RMM:   9    -0.239971007927E+02    0.56018E-02   -0.10898E-02    64   0.692E-01    0.194E-01
RMM:  10    -0.239907748169E+02    0.63260E-02   -0.24282E-02    64   0.848E-01    0.274E-01
RMM:  11    -0.239915511203E+02   -0.77630E-03   -0.82725E-03    64   0.565E-01    0.869E-02
RMM:  12    -0.240009346644E+02   -0.93835E-02   -0.32193E-03    64   0.349E-01    0.120E-01
RMM:  13    -0.240015011954E+02   -0.56653E-03   -0.99689E-04    64   0.174E-01    0.457E-02
RMM:  14    -0.240043439720E+02   -0.28428E-02   -0.12363E-03    64   0.216E-01    0.276E-02
RMM:  15    -0.240046185250E+02   -0.27455E-03   -0.42063E-05    64   0.406E-02    0.169E-02
RMM:  16    -0.240048291922E+02   -0.21067E-03   -0.98022E-05    64   0.577E-02    0.606E-03
RMM:  17    -0.240048693638E+02   -0.40172E-04   -0.24147E-05    64   0.278E-02    0.489E-03
RMM:  18    -0.240048798955E+02   -0.10532E-04   -0.43928E-06    64   0.118E-02    0.665E-04
RMM:  19    -0.240048838416E+02   -0.39461E-05   -0.50978E-07    48   0.493E-03    0.875E-04
RMM:  20    -0.240048847518E+02   -0.91022E-06   -0.13155E-07    48   0.258E-03
    1 T=     1. E= -.24004441E+02 F= -.24004885E+02 E0= -.24004885E+02  EK= 0.44330E-03 SP= 0.00E+00 SK= 0.00E+00
       N       E                     dE             d eps       ncg     rms          rms(c)
DAV:   1    -0.240083048157E+02   -0.34210E-02   -0.36936E-03    96   0.590E-01    0.260E-02
RMM:   2    -0.240083036439E+02    0.11718E-05   -0.10508E-04    64   0.802E-02    0.163E-02
RMM:   3    -0.240083023716E+02    0.12723E-05   -0.15358E-05    64   0.305E-02    0.349E-03
RMM:   4    -0.240083022607E+02    0.11092E-06   -0.45620E-07    48   0.647E-03
    2 T=     7. E= -.24004508E+02 F= -.24008302E+02 E0= -.24008302E+02  EK= 0.37938E-02 SP= 0.00E+00 SK= 0.00E+00
       N       E                     dE             d eps       ncg     rms          rms(c)
DAV:   1    -0.240140798466E+02   -0.57775E-02   -0.30353E-03    64   0.553E-01    0.112E-02
RMM:   2    -0.240140997011E+02   -0.19854E-04   -0.20288E-04    64   0.114E-01    0.313E-03
RMM:   3    -0.240141014295E+02   -0.17284E-05   -0.79870E-06    54   0.229E-02    0.348E-03
RMM:   4    -0.240141017658E+02   -0.33630E-06   -0.85409E-07    48   0.899E-03
    3 T=    18. E= -.24004619E+02 F= -.24014102E+02 E0= -.24014102E+02  EK= 0.94827E-02 SP= 0.00E+00 SK= 0.00E+00
       N       E                     dE             d eps       ncg     rms          rms(c)
DAV:   1    -0.240205218996E+02   -0.64205E-02   -0.10410E-03    64   0.272E-01    0.490E-03
RMM:   2    -0.240205250158E+02   -0.31162E-05   -0.31148E-05    64   0.493E-02    0.535E-03
RMM:   3    -0.240205247978E+02    0.21808E-06   -0.97472E-07    48   0.968E-03    0.489E-03
RMM:   4    -0.240205253257E+02   -0.52796E-06   -0.47684E-06    60   0.129E-02
    4 T=    31. E= -.24004747E+02 F= -.24020525E+02 E0= -.24020525E+02  EK= 0.15778E-01 SP= 0.00E+00 SK= 0.00E+00
       N       E                     dE             d eps       ncg     rms          rms(c)
DAV:   1    -0.240255817061E+02   -0.50569E-02   -0.14773E-03    72   0.342E-01    0.365E-03
RMM:   2    -0.240255849762E+02   -0.32701E-05   -0.13218E-05    64   0.291E-02    0.244E-03
RMM:   3    -0.240255871528E+02   -0.21766E-05   -0.77109E-07    48   0.731E-03    0.102E-03
RMM:   4    -0.240255893956E+02   -0.22429E-05   -0.30040E-07    48   0.439E-03    0.408E-04
RMM:   5    -0.240255928489E+02   -0.34533E-05   -0.25157E-07    48   0.309E-03    0.231E-04
RMM:   6    -0.240255952045E+02   -0.23556E-05   -0.18332E-07    44   0.235E-03    0.238E-04
RMM:   7    -0.240255966152E+02   -0.14107E-05   -0.84199E-08    43   0.186E-03    0.113E-04
RMM:   8    -0.240255969241E+02   -0.30891E-06   -0.25555E-08    35   0.139E-03
    5 T=    40. E= -.24004851E+02 F= -.24025597E+02 E0= -.24025597E+02  EK= 0.20746E-01 SP= 0.00E+00 SK= 0.00E+00
       N       E                     dE             d eps       ncg     rms          rms(c)
DAV:   1    -0.240277356734E+02   -0.21391E-02   -0.16920E-03    80   0.388E-01    0.254E-03
RMM:   2    -0.240277381990E+02   -0.25256E-05   -0.70691E-06    64   0.252E-02    0.219E-03
RMM:   3    -0.240277396506E+02   -0.14515E-05   -0.28776E-07    48   0.492E-03    0.134E-03
RMM:   4    -0.240277417487E+02   -0.20981E-05   -0.19291E-07    48   0.347E-03    0.254E-04
RMM:   5    -0.240277428755E+02   -0.11268E-05   -0.92581E-09    37   0.176E-03    0.102E-04
RMM:   6    -0.240277436621E+02   -0.78658E-06   -0.11793E-07    43   0.199E-03
    6 T=    44. E= -.24004896E+02 F= -.24027744E+02 E0= -.24027744E+02  EK= 0.22848E-01 SP= 0.00E+00 SK= 0.00E+00
       N       E                     dE             d eps       ncg     rms          rms(c)
DAV:   1    -0.240263036683E+02    0.14392E-02   -0.16936E-03    64   0.378E-01    0.170E-03
RMM:   2    -0.240263059789E+02   -0.23106E-05   -0.81335E-06    64   0.299E-02    0.155E-03
RMM:   3    -0.240263066688E+02   -0.68989E-06   -0.20686E-07    48   0.446E-03    0.145E-03
RMM:   4    -0.240263083330E+02   -0.16642E-05   -0.11875E-07    48   0.247E-03    0.540E-04
RMM:   5    -0.240263095968E+02   -0.12638E-05   -0.11126E-08    37   0.167E-03    0.143E-04
RMM:   6    -0.240263106725E+02   -0.10757E-05   -0.51820E-08    41   0.160E-03    0.188E-04
RMM:   7    -0.240263115921E+02   -0.91963E-06   -0.15437E-08    34   0.125E-03
    7 T=    41. E= -.24004865E+02 F= -.24026312E+02 E0= -.24026312E+02  EK= 0.21447E-01 SP= 0.00E+00 SK= 0.00E+00
       N       E                     dE             d eps       ncg     rms          rms(c)
DAV:   1    -0.240218210276E+02    0.44896E-02   -0.14003E-03    80   0.342E-01    0.176E-03
RMM:   2    -0.240218222615E+02   -0.12339E-05   -0.94051E-06    64   0.355E-02    0.188E-03
RMM:   3    -0.240218223345E+02   -0.73028E-07   -0.21262E-07    48   0.450E-03    0.171E-03
RMM:   4    -0.240218226871E+02   -0.35258E-06   -0.22899E-07    48   0.344E-03
    8 T=    33. E= -.24004766E+02 F= -.24021823E+02 E0= -.24021823E+02  EK= 0.17057E-01 SP= 0.00E+00 SK= 0.00E+00
       N       E                     dE             d eps       ncg     rms          rms(c)
DAV:   1    -0.240158577985E+02    0.59645E-02   -0.95306E-04    72   0.285E-01    0.137E-03
RMM:   2    -0.240158590305E+02   -0.12320E-05   -0.83956E-06    64   0.373E-02    0.225E-03
RMM:   3    -0.240158590305E+02   -0.11596E-10   -0.14903E-07    44   0.308E-03    0.205E-03
RMM:   4    -0.240158599394E+02   -0.90890E-06   -0.21236E-07    48   0.325E-03
    9 T=    22. E= -.24004631E+02 F= -.24015860E+02 E0= -.24015860E+02  EK= 0.11229E-01 SP= 0.00E+00 SK= 0.00E+00
       N       E                     dE             d eps       ncg     rms          rms(c)
DAV:   1    -0.240105602010E+02    0.52988E-02   -0.46325E-04    96   0.201E-01    0.245E-03
RMM:   2    -0.240105610606E+02   -0.85964E-06   -0.68394E-06    64   0.323E-02    0.993E-04
RMM:   3    -0.240105612001E+02   -0.13944E-06   -0.11523E-07    48   0.309E-03    0.731E-04
RMM:   4    -0.240105614325E+02   -0.23242E-06   -0.95572E-08    45   0.248E-03
   10 T=    12. E= -.24004508E+02 F= -.24010561E+02 E0= -.24010561E+02  EK= 0.60531E-02 SP= 0.00E+00 SK= 0.00E+00
