 vasp.5.4.4.18Apr17-6-g9f103f2a35 (build Nov 25 2021 15:25:00) complex          
  
 executed on             LinuxIFC date 2022.02.21  10:17:54
 running on   16 total cores
 distrk:  each k-point on   16 cores,    1 groups
 distr:  one band on NCORES_PER_BAND=   4 cores,    4 groups


--------------------------------------------------------------------------------------------------------


 INCAR:
 POTCAR:    PAW_PBE H 15Jun2001                   
 POTCAR:    PAW_PBE C 08Apr2002                   
 POTCAR:    PAW_PBE H 15Jun2001                   
   VRHFIN =H: ultrasoft test                                                    
   LEXCH  = PE                                                                  
   EATOM  =    12.4884 eV,    0.9179 Ry                                         
                                                                                
   TITEL  = PAW_PBE H 15Jun2001                                                 
   LULTRA =        F    use ultrasoft PP ?                                      
   IUNSCR =        0    unscreen: 0-lin 1-nonlin 2-no                           
   RPACOR =    0.000    partial core radius                                     
   POMASS =    1.000; ZVAL   =    1.000    mass and valenz                      
   RCORE  =    1.100    outmost cutoff radius                                   
   RWIGS  =    0.700; RWIGS  =    0.370    wigner-seitz radius (au A)           
   ENMAX  =  250.000; ENMIN  =  200.000 eV                                      
   RCLOC  =    0.701    cutoff for local pot                                    
   LCOR   =        T    correct aug charges                                     
   LPAW   =        T    paw PP                                                  
   EAUG   =  400.000                                                            
   RMAX   =    1.123    core radius for proj-oper                               
   RAUG   =    1.200    factor for augmentation sphere                          
   RDEP   =    1.112    radius for radial grids                                 
   RDEPT  =    0.926    core radius for aug-charge                              
                                                                                
   Atomic configuration                                                         
    2 entries                                                                   
     n  l   j            E        occ.                                          
     1  0  0.50        -6.4927   1.0000                                         
     2  1  0.50        -3.4015   0.0000                                         
   Description                                                                  
     l       E           TYP  RCUT    TYP  RCUT                                 
     0     -6.4927494     23  1.100                                             
     0      6.8029130     23  1.100                                             
     1     -4.0817478     23  1.100                                             
  local pseudopotential read in
  atomic valenz-charges read in
  non local Contribution for L=           0  read in
    real space projection operators read in
  non local Contribution for L=           0  read in
    real space projection operators read in
  non local Contribution for L=           1  read in
    real space projection operators read in
    PAW grid and wavefunctions read in
 
   number of l-projection  operators is LMAX  =           3
   number of lm-projection operators is LMMAX =           5
 
 POTCAR:    PAW_PBE C 08Apr2002                   
   VRHFIN =C: s2p2                                                              
   LEXCH  = PE                                                                  
   EATOM  =   147.1560 eV,   10.8157 Ry                                         
                                                                                
   TITEL  = PAW_PBE C 08Apr2002                                                 
   LULTRA =        F    use ultrasoft PP ?                                      
   IUNSCR =        1    unscreen: 0-lin 1-nonlin 2-no                           
   RPACOR =    1.200    partial core radius                                     
   POMASS =   12.011; ZVAL   =    4.000    mass and valenz                      
   RCORE  =    1.500    outmost cutoff radius                                   
   RWIGS  =    1.630; RWIGS  =    0.863    wigner-seitz radius (au A)           
   ENMAX  =  400.000; ENMIN  =  300.000 eV                                      
   ICORE  =        2    local potential                                         
   LCOR   =        T    correct aug charges                                     
   LPAW   =        T    paw PP                                                  
   EAUG   =  644.873                                                            
   DEXC   =    0.000                                                            
   RMAX   =    1.529    core radius for proj-oper                               
   RAUG   =    1.300    factor for augmentation sphere                          
   RDEP   =    1.501    radius for radial grids                                 
   RDEPT  =    1.300    core radius for aug-charge                              
                                                                                
   Atomic configuration                                                         
    4 entries                                                                   
     n  l   j            E        occ.                                          
     1  0  0.50      -273.3789   2.0000                                         
     2  0  0.50       -13.7508   2.0000                                         
     2  1  0.50        -5.2854   2.0000                                         
     3  2  1.50        -5.4423   0.0000                                         
   Description                                                                  
     l       E           TYP  RCUT    TYP  RCUT                                 
     0    -13.7508458     23  1.200                                             
     0     -8.2022199     23  1.200                                             
     1     -5.2854383     23  1.500                                             
     1     34.0145650     23  1.500                                             
     2     -5.4423304      7  1.500                                             
  local pseudopotential read in
  partial core-charges read in
  partial kinetic energy density read in
  atomic valenz-charges read in
  non local Contribution for L=           0  read in
    real space projection operators read in
  non local Contribution for L=           0  read in
    real space projection operators read in
  non local Contribution for L=           1  read in
    real space projection operators read in
  non local Contribution for L=           1  read in
    real space projection operators read in
    PAW grid and wavefunctions read in
 
   number of l-projection  operators is LMAX  =           4
   number of lm-projection operators is LMMAX =           8
 
  PAW_PBE H 15Jun2001                   :
 energy of atom  1       EATOM=  -12.4884
 kinetic energy error for atom=    0.0098 (will be added to EATOM!!)
  PAW_PBE C 08Apr2002                   :
 energy of atom  2       EATOM= -147.1560
 kinetic energy error for atom=    0.0288 (will be added to EATOM!!)
 
 
 POSCAR:  H  C                                   
  positions in cartesian coordinates
  No initial velocities read in
 exchange correlation table for  LEXCH =        8
   RHO(1)=    0.500       N(1)  =     2000
   RHO(2)=  100.500       N(2)  =     4000

 VTST: version 3.2, (02/03/18)

 CHAIN: initializing optimizer
 
 OPT: Using VASP Dynamics algorithm
 CHAIN: Read ICHAIN            0
 
 POSCAR:  H  C                                   
  positions in cartesian coordinates
  No initial velocities read in
 


--------------------------------------------------------------------------------------------------------


 ion  position               nearest neighbor table
   1  0.538  0.407  0.361-   5 1.09
   2  0.394  0.480  0.438-   5 1.12
   3  0.552  0.566  0.443-   5 1.08
   4  0.528  0.416  0.539-   5 1.12
   5  0.504  0.467  0.445-   3 1.08   1 1.09   4 1.12   2 1.12
 

IMPORTANT INFORMATION: All symmetrisations will be switched off!
NOSYMM: (Re-)initialisation of all symmetry stuff for point group C_1.

 
 

Automatic generation of k-mesh.
 generate k-points for:    2    2    2
Space group operators:
 irot       det(A)        alpha          n_x          n_y          n_z        tau_x        tau_y        tau_z
    1     1.000000     0.000001     1.000000     0.000000     0.000000     0.000000     0.000000     0.000000
 
 Subroutine IBZKPT returns following result:
 ===========================================
 
 Found      4 irreducible k-points:
 
 Following reciprocal coordinates:
            Coordinates               Weight
  0.250000  0.250000  0.250000      2.000000
 -0.250000  0.250000  0.250000      2.000000
  0.250000 -0.250000  0.250000      2.000000
 -0.250000 -0.250000  0.250000      2.000000
 
 Following cartesian coordinates:
            Coordinates               Weight
  0.024657  0.025526  0.025027      2.000000
 -0.024657  0.025247  0.025264      2.000000
  0.024657 -0.025247  0.023698      2.000000
 -0.024657 -0.025526  0.023936      2.000000
 


--------------------------------------------------------------------------------------------------------




 Dimension of arrays:
   k-points           NKPTS =      4   k-points in BZ     NKDIM =      4   number of bands    NBANDS=      8
   number of dos      NEDOS =    301   number of ions     NIONS =      5
   non local maximal  LDIM  =      4   non local SUM 2l+1 LMDIM =      8
   total plane-waves  NPLWV = 313600
   max r-space proj   IRMAX =      1   max aug-charges    IRDMAX=   3829
   dimension x,y,z NGX =    70 NGY =   64 NGZ =   70
   dimension x,y,z NGXF=   140 NGYF=  128 NGZF=  140
   support grid    NGXF=   140 NGYF=  128 NGZF=  140
   ions per type =               4   1
   NGX,Y,Z   is equivalent  to a cutoff of  11.48, 10.80, 11.39 a.u.
   NGXF,Y,Z  is equivalent  to a cutoff of  22.95, 21.61, 22.78 a.u.

 SYSTEM =  unknown system                          
 POSCAR =   H  C                                   

 Startparameter for this run:
   NWRITE =      2    write-flag & timer
   PREC   = a         normal or accurate (medium, high low for compatibility)
   ISTART =      0    job   : 0-new  1-cont  2-samecut
   ICHARG =      2    charge: 1-file 2-atom 10-const
   ISPIN  =      1    spin polarized calculation?
   LNONCOLLINEAR =      F non collinear calculations
   LSORBIT =      F    spin-orbit coupling
   INIWAV =      1    electr: 0-lowe 1-rand  2-diag
   LASPH  =      F    aspherical Exc in radial PAW
   METAGGA=      F    non-selfconsistent MetaGGA calc.

 Electronic Relaxation 1
   ENCUT  =  400.0 eV  29.40 Ry    5.42 a.u.  16.53 16.06 16.66*2*pi/ulx,y,z
   ENINI  =  400.0     initial cutoff
   ENAUG  =  644.9 eV  augmentation charge cutoff
   NELM   =    120;   NELMIN=  4; NELMDL= -5     # of ELM steps 
   EDIFF  = 0.1E-05   stopping-criterion for ELM
   LREAL  =      F    real-space projection
   NLSPLINE    = F    spline interpolate recip. space projectors
   LCOMPAT=      F    compatible to vasp.4.4
   GGA_COMPAT  = T    GGA compatible to vasp.4.4-vasp.4.6
   LMAXPAW     = -100 max onsite density
   LMAXMIX     =    2 max onsite mixed and CHGCAR
   VOSKOWN=      0    Vosko Wilk Nusair interpolation
   ROPT   =    0.00000   0.00000
 Ionic relaxation
   EDIFFG = 0.1E-04   stopping-criterion for IOM
   NSW    =     10    number of steps for IOM
   NBLOCK =      1;   KBLOCK =     10    inner block; outer block 
   IBRION =      0    ionic relax: 0-MD 1-quasi-New 2-CG
   NFREE  =      0    steps in history (QN), initial steepest desc. (CG)
   ISIF   =      2    stress and relaxation
   IWAVPR =     12    prediction:  0-non 1-charg 2-wave 3-comb
   ISYM   =      0    0-nonsym 1-usesym 2-fastsym
   LCORR  =      T    Harris-Foulkes like correction to forces

   POTIM  = 0.5000    time-step for ionic-motion
   TEIN   =    0.0    initial temperature
   TEBEG  =    0.0;   TEEND  =   0.0 temperature during run
   SMASS  =  -3.00    Nose mass-parameter (am)
   estimated Nose-frequenzy (Omega)   =  0.10E-29 period in steps =****** mass=  -0.235E-26a.u.
   SCALEE = 1.0000    scale energy and forces
   NPACO  =    256;   APACO  = 16.0  distance and # of slots for P.C.
   PSTRESS=    0.0 pullay stress

  Mass of Ions in am
   POMASS =   1.00 12.01
  Ionic Valenz
   ZVAL   =   1.00  4.00
  Atomic Wigner-Seitz radii
   RWIGS  =  -1.00 -1.00
  virtual crystal weights 
   VCA    =   1.00  1.00
   NELECT =       8.0000    total number of electrons
   NUPDOWN=      -1.0000    fix difference up-down

 DOS related values:
   EMIN   =  10.00;   EMAX   =-10.00  energy-range for DOS
   EFERMI =   0.00
   ISMEAR =     0;   SIGMA  =   0.20  broadening in eV -4-tet -1-fermi 0-gaus

 Electronic relaxation 2 (details)
   IALGO  =     68    algorithm
   LDIAG  =      T    sub-space diagonalisation (order eigenvalues)
   LSUBROT=      F    optimize rotation matrix (better conditioning)
   TURBO    =      0    0=normal 1=particle mesh
   IRESTART =      0    0=no restart 2=restart with 2 vectors
   NREBOOT  =      0    no. of reboots
   NMIN     =      0    reboot dimension
   EREF     =   0.00    reference energy to select bands
   IMIX   =      4    mixing-type and parameters
     AMIX     =   0.40;   BMIX     =  1.00
     AMIX_MAG =   1.60;   BMIX_MAG =  1.00
     AMIN     =   0.10
     WC   =   100.;   INIMIX=   1;  MIXPRE=   1;  MAXMIX= -45

 Intra band minimization:
   WEIMIN = 0.0010     energy-eigenvalue tresh-hold
   EBREAK =  0.31E-07  absolut break condition
   DEPER  =   0.30     relativ break condition  

   TIME   =   0.40     timestep for ELM

  volume/ion in A,a.u.               =     203.93      1376.16
  Fermi-wavevector in a.u.,A,eV,Ry     =   0.325305  0.614737  1.439811  0.105823
  Thomas-Fermi vector in A             =   1.216183
 
 Write flags
   LWAVE        =      F    write WAVECAR
   LDOWNSAMPLE  =      F    k-point downsampling of WAVECAR
   LCHARG       =      F    write CHGCAR
   LVTOT        =      F    write LOCPOT, total local potential
   LVHAR        =      F    write LOCPOT, Hartree potential only
   LELF         =      F    write electronic localiz. function (ELF)
   LORBIT       =      0    0 simple, 1 ext, 2 COOP (PROOUT), +10 PAW based schemes


 Dipole corrections
   LMONO  =      F    monopole corrections only (constant potential shift)
   LDIPOL =      F    correct potential (dipole corrections)
   IDIPOL =      0    1-x, 2-y, 3-z, 4-all directions 
   EPSILON=  1.0000000 bulk dielectric constant

 Exchange correlation treatment:
   GGA     =    --    GGA type
   LEXCH   =     8    internal setting for exchange type
   VOSKOWN=      0    Vosko Wilk Nusair interpolation
   LHFCALC =     F    Hartree Fock is set to
   LHFONE  =     F    Hartree Fock one center treatment
   AEXX    =    0.0000 exact exchange contribution

 Linear response parameters
   LEPSILON=     F    determine dielectric tensor
   LRPA    =     F    only Hartree local field effects (RPA)
   LNABLA  =     F    use nabla operator in PAW spheres
   LVEL    =     F    velocity operator in full k-point grid
   LINTERFAST=   F  fast interpolation
   KINTER  =     0    interpolate to denser k-point grid
   CSHIFT  =0.1000    complex shift for real part using Kramers Kronig
   OMEGAMAX=  -1.0    maximum frequency
   DEG_THRESHOLD= 0.2000000E-02 threshold for treating states as degnerate
   RTIME   =   -0.100 relaxation time in fs
  (WPLASMAI=    0.000 imaginary part of plasma frequency in eV, 0.658/RTIME)
   DFIELD  = 0.0000000 0.0000000 0.0000000 field for delta impulse in time
 
 Orbital magnetization related:
   ORBITALMAG=     F  switch on orbital magnetization
   LCHIMAG   =     F  perturbation theory with respect to B field
   DQ        =  0.001000  dq finite difference perturbation B field
   LLRAUG    =     F  two centre corrections for induced B field



--------------------------------------------------------------------------------------------------------


 molecular dynamics for ions
   using a microcanonical ensemble
 charge density and potential will be updated during run
 non-spin polarized calculation
 RMM-DIIS sequential band-by-band and
  variant of blocked Davidson during initial phase
 perform sub-space diagonalisation
    before iterative eigenvector-optimisation
 modified Broyden-mixing scheme, WC =      100.0
 initial mixing is a Kerker type mixing with AMIX =  0.4000 and BMIX =      1.0000
 Hartree-type preconditioning will be used
 using additional bands            4
 reciprocal scheme for non local part
 use partial core corrections
 calculate Harris-corrections to forces 
   (improved forces if not selfconsistent)
 use gradient corrections 
 use of overlap-Matrix (Vanderbilt PP)
 Gauss-broadening in eV      SIGMA  =   0.20


--------------------------------------------------------------------------------------------------------


  energy-cutoff  :      400.00
  volume of cell :     1019.63
      direct lattice vectors                 reciprocal lattice vectors
    10.139193443  0.000000000  0.000000000     0.098627174  0.000558510 -0.000475254
    -0.055765756  9.847660359  0.000000000     0.000000000  0.101546963  0.002657716
     0.050721563 -0.267269064 10.211910342     0.000000000  0.000000000  0.097924871

  length of vectors
    10.139193443  9.847818254 10.215533186     0.098629901  0.101581736  0.097924871


 
 k-points in units of 2pi/SCALE and weight: read from INCAR                         
   0.02465679  0.02552637  0.02502683       0.250
  -0.02465679  0.02524711  0.02526446       0.250
   0.02465679 -0.02524711  0.02369798       0.250
  -0.02465679 -0.02552637  0.02393560       0.250
 
 k-points in reciprocal lattice and weights: read from INCAR                         
   0.25000000  0.25000000  0.25000000       0.250
  -0.25000000  0.25000000  0.25000000       0.250
   0.25000000 -0.25000000  0.25000000       0.250
  -0.25000000 -0.25000000  0.25000000       0.250
 
 position of ions in fractional coordinates (direct lattice) 
   0.53776082  0.40721785  0.36138650
   0.39439711  0.48011697  0.43846204
   0.55234308  0.56557898  0.44261278
   0.52760168  0.41620563  0.53902266
   0.50384574  0.46724287  0.44546816
 
 position of ions in cartesian coordinates  (Angst):
   5.44808229  3.91355561  3.69044657
   3.99433395  4.61084155  4.47753499
   5.59122345  5.45133299  4.51992206
   5.35358557  3.95458761  5.50445106
   5.10512816  4.48218920  4.54908091
 


--------------------------------------------------------------------------------------------------------


 k-point  1 :   0.2500 0.2500 0.2500  plane waves:   18532
 k-point  2 :  -0.2500 0.2500 0.2500  plane waves:   18521
 k-point  3 :   0.2500-0.2500 0.2500  plane waves:   18515
 k-point  4 :  -0.2500-0.2500 0.2500  plane waves:   18524

 maximum and minimum number of plane-waves per node :      4654     4611

 maximum number of plane-waves:     18532
 maximum index in each direction: 
   IXMAX=   16   IYMAX=   16   IZMAX=   16
   IXMIN=  -16   IYMIN=  -16   IZMIN=  -16


 parallel 3D FFT for wavefunctions:
    minimum data exchange during FFTs selected (reduces bandwidth)
 parallel 3D FFT for charge:
    minimum data exchange during FFTs selected (reduces bandwidth)


 total amount of memory used by VASP MPI-rank0    53566. kBytes
=======================================================================

   base      :      30000. kBytes
   nonl-proj :       2749. kBytes
   fftplans  :       7848. kBytes
   grid      :      12367. kBytes
   one-center:          6. kBytes
   wavefun   :        596. kBytes
 
     INWAV:  cpu time    0.0000: real time    0.0001
 Broyden mixing: mesh for mixing (old mesh)
   NGX = 33   NGY = 33   NGZ = 33
  (NGX  =140   NGY  =128   NGZ  =140)
  gives a total of  35937 points

 initial charge density was supplied:
 charge density of overlapping atoms calculated
 number of electron       8.0000000 magnetization 
 keeping initial charge density in first step


--------------------------------------------------------------------------------------------------------


 Maximum index for augmentation-charges          158 (set IRDMAX)


--------------------------------------------------------------------------------------------------------


 First call to EWALD:  gamma=   0.176
 Maximum number of real-space cells 3x 3x 3
 Maximum number of reciprocal cells 3x 3x 3

    FEWALD:  cpu time    0.0015: real time    0.0015


--------------------------------------- Iteration      1(   1)  ---------------------------------------


    POTLOK:  cpu time    0.1236: real time    0.1345
    SETDIJ:  cpu time    0.0031: real time    0.0043
     EDDAV:  cpu time    0.1781: real time    0.2002
       DOS:  cpu time    0.0006: real time    0.0010
    --------------------------------------------
      LOOP:  cpu time    0.3055: real time    0.3400

 eigenvalue-minimisations  :    96
 total energy-change (2. order) : 0.9189595E+01  (-0.2073987E+03)
 number of electron       8.0000000 magnetization 
 augmentation part        8.0000000 magnetization 

 Free energy of the ion-electron system (eV)
  ---------------------------------------------------
  alpha Z        PSCENC =         0.23758649
  Ewald energy   TEWEN  =       128.33349872
  -Hartree energ DENC   =      -244.14747123
  -exchange      EXHF   =         0.00000000
  -V(xc)+E(xc)   XCENC  =        21.97937875
  PAW double counting   =       117.05815612     -117.66307307
  entropy T*S    EENTRO =        -0.00000000
  eigenvalues    EBANDS =       -93.65023549
  atomic energy  EATOM  =       197.04175453
  Solvation  Ediel_sol  =         0.00000000
  ---------------------------------------------------
  free energy    TOTEN  =         9.18959482 eV

  energy without entropy =        9.18959482  energy(sigma->0) =        9.18959482


--------------------------------------------------------------------------------------------------------




--------------------------------------- Iteration      1(   2)  ---------------------------------------


     EDDAV:  cpu time    0.1300: real time    0.1349
       DOS:  cpu time    0.0002: real time    0.0002
    --------------------------------------------
      LOOP:  cpu time    0.1302: real time    0.1351

 eigenvalue-minimisations  :    64
 total energy-change (2. order) :-0.3337860E+02  (-0.3337860E+02)
 number of electron       8.0000000 magnetization 
 augmentation part        8.0000000 magnetization 

 Free energy of the ion-electron system (eV)
  ---------------------------------------------------
  alpha Z        PSCENC =         0.23758649
  Ewald energy   TEWEN  =       128.33349872
  -Hartree energ DENC   =      -244.14747123
  -exchange      EXHF   =         0.00000000
  -V(xc)+E(xc)   XCENC  =        21.97937875
  PAW double counting   =       117.05815612     -117.66307307
  entropy T*S    EENTRO =        -0.00000000
  eigenvalues    EBANDS =      -127.02883708
  atomic energy  EATOM  =       197.04175453
  Solvation  Ediel_sol  =         0.00000000
  ---------------------------------------------------
  free energy    TOTEN  =       -24.18900677 eV

  energy without entropy =      -24.18900677  energy(sigma->0) =      -24.18900677


--------------------------------------------------------------------------------------------------------




--------------------------------------- Iteration      1(   3)  ---------------------------------------


     EDDAV:  cpu time    0.1431: real time    0.1468
       DOS:  cpu time    0.0002: real time    0.0002
    --------------------------------------------
      LOOP:  cpu time    0.1433: real time    0.1470

 eigenvalue-minimisations  :    72
 total energy-change (2. order) :-0.3179412E+01  (-0.3179412E+01)
 number of electron       8.0000000 magnetization 
 augmentation part        8.0000000 magnetization 

 Free energy of the ion-electron system (eV)
  ---------------------------------------------------
  alpha Z        PSCENC =         0.23758649
  Ewald energy   TEWEN  =       128.33349872
  -Hartree energ DENC   =      -244.14747123
  -exchange      EXHF   =         0.00000000
  -V(xc)+E(xc)   XCENC  =        21.97937875
  PAW double counting   =       117.05815612     -117.66307307
  entropy T*S    EENTRO =        -0.00000000
  eigenvalues    EBANDS =      -130.20824896
  atomic energy  EATOM  =       197.04175453
  Solvation  Ediel_sol  =         0.00000000
  ---------------------------------------------------
  free energy    TOTEN  =       -27.36841865 eV

  energy without entropy =      -27.36841865  energy(sigma->0) =      -27.36841865


--------------------------------------------------------------------------------------------------------




--------------------------------------- Iteration      1(   4)  ---------------------------------------


     EDDAV:  cpu time    0.2185: real time    0.2247
       DOS:  cpu time    0.0002: real time    0.0002
    --------------------------------------------
      LOOP:  cpu time    0.2186: real time    0.2249

 eigenvalue-minimisations  :   128
 total energy-change (2. order) :-0.9404333E-01  (-0.9404333E-01)
 number of electron       8.0000000 magnetization 
 augmentation part        8.0000000 magnetization 

 Free energy of the ion-electron system (eV)
  ---------------------------------------------------
  alpha Z        PSCENC =         0.23758649
  Ewald energy   TEWEN  =       128.33349872
  -Hartree energ DENC   =      -244.14747123
  -exchange      EXHF   =         0.00000000
  -V(xc)+E(xc)   XCENC  =        21.97937875
  PAW double counting   =       117.05815612     -117.66307307
  entropy T*S    EENTRO =        -0.00000000
  eigenvalues    EBANDS =      -130.30229229
  atomic energy  EATOM  =       197.04175453
  Solvation  Ediel_sol  =         0.00000000
  ---------------------------------------------------
  free energy    TOTEN  =       -27.46246198 eV

  energy without entropy =      -27.46246198  energy(sigma->0) =      -27.46246198


--------------------------------------------------------------------------------------------------------




--------------------------------------- Iteration      1(   5)  ---------------------------------------


     EDDAV:  cpu time    0.1865: real time    0.1956
       DOS:  cpu time    0.0002: real time    0.0002
    CHARGE:  cpu time    0.0181: real time    0.0185
    MIXING:  cpu time    0.0037: real time    0.0038
    --------------------------------------------
      LOOP:  cpu time    0.2084: real time    0.2181

 eigenvalue-minimisations  :   104
 total energy-change (2. order) :-0.2702394E-04  (-0.2702402E-04)
 number of electron       8.0000002 magnetization 
 augmentation part        0.2233656 magnetization 

 Broyden mixing:
  rms(total) = 0.86266E+00    rms(broyden)= 0.86245E+00
  rms(prec ) = 0.12186E+01
  weight for this iteration     100.00

 Free energy of the ion-electron system (eV)
  ---------------------------------------------------
  alpha Z        PSCENC =         0.23758649
  Ewald energy   TEWEN  =       128.33349872
  -Hartree energ DENC   =      -244.14747123
  -exchange      EXHF   =         0.00000000
  -V(xc)+E(xc)   XCENC  =        21.97937875
  PAW double counting   =       117.05815612     -117.66307307
  entropy T*S    EENTRO =        -0.00000000
  eigenvalues    EBANDS =      -130.30231932
  atomic energy  EATOM  =       197.04175453
  Solvation  Ediel_sol  =         0.00000000
  ---------------------------------------------------
  free energy    TOTEN  =       -27.46248901 eV

  energy without entropy =      -27.46248901  energy(sigma->0) =      -27.46248901


--------------------------------------------------------------------------------------------------------




--------------------------------------- Iteration      1(   6)  ---------------------------------------


    POTLOK:  cpu time    0.1172: real time    0.1193
    SETDIJ:  cpu time    0.0016: real time    0.0017
    EDDIAG:  cpu time    0.0376: real time    0.0463
  RMM-DIIS:  cpu time    0.1311: real time    0.1348
    ORTHCH:  cpu time    0.0014: real time    0.0014
       DOS:  cpu time    0.0002: real time    0.0002
    CHARGE:  cpu time    0.0163: real time    0.0167
    MIXING:  cpu time    0.0043: real time    0.0058
    --------------------------------------------
      LOOP:  cpu time    0.3097: real time    0.3262

 eigenvalue-minimisations  :    64
 total energy-change (2. order) : 0.2833428E+01  (-0.5227752E+00)
 number of electron       8.0000002 magnetization 
 augmentation part        0.1968616 magnetization 

 Broyden mixing:
  rms(total) = 0.42552E+00    rms(broyden)= 0.42543E+00
  rms(prec ) = 0.55026E+00
  weight for this iteration     100.00

 eigenvalues of (default mixing * dielectric matrix)
  average eigenvalue GAMMA=   1.3007
  1.3007

 Free energy of the ion-electron system (eV)
  ---------------------------------------------------
  alpha Z        PSCENC =         0.23758649
  Ewald energy   TEWEN  =       128.33349872
  -Hartree energ DENC   =      -263.66903373
  -exchange      EXHF   =         0.00000000
  -V(xc)+E(xc)   XCENC  =        23.16433726
  PAW double counting   =       236.67799213     -237.45492263
  entropy T*S    EENTRO =        -0.00000000
  eigenvalues    EBANDS =      -108.96027404
  atomic energy  EATOM  =       197.04175453
  Solvation  Ediel_sol  =         0.00000000
  ---------------------------------------------------
  free energy    TOTEN  =       -24.62906126 eV

  energy without entropy =      -24.62906126  energy(sigma->0) =      -24.62906126


--------------------------------------------------------------------------------------------------------




--------------------------------------- Iteration      1(   7)  ---------------------------------------


    POTLOK:  cpu time    0.1165: real time    0.1194
    SETDIJ:  cpu time    0.0017: real time    0.0018
    EDDIAG:  cpu time    0.0335: real time    0.0349
  RMM-DIIS:  cpu time    0.1293: real time    0.1338
    ORTHCH:  cpu time    0.0016: real time    0.0016
       DOS:  cpu time    0.0002: real time    0.0002
    CHARGE:  cpu time    0.0156: real time    0.0160
    MIXING:  cpu time    0.0040: real time    0.0041
    --------------------------------------------
      LOOP:  cpu time    0.3023: real time    0.3117

 eigenvalue-minimisations  :    64
 total energy-change (2. order) : 0.4808029E+00  (-0.1157056E+00)
 number of electron       8.0000002 magnetization 
 augmentation part        0.1865914 magnetization 

 Broyden mixing:
  rms(total) = 0.22673E+00    rms(broyden)= 0.22667E+00
  rms(prec ) = 0.27379E+00
  weight for this iteration     100.00

 eigenvalues of (default mixing * dielectric matrix)
  average eigenvalue GAMMA=   1.8405
  1.4495  2.2314

 Free energy of the ion-electron system (eV)
  ---------------------------------------------------
  alpha Z        PSCENC =         0.23758649
  Ewald energy   TEWEN  =       128.33349872
  -Hartree energ DENC   =      -275.12170387
  -exchange      EXHF   =         0.00000000
  -V(xc)+E(xc)   XCENC  =        24.00780519
  PAW double counting   =       360.27240156     -361.08692865
  entropy T*S    EENTRO =        -0.00000000
  eigenvalues    EBANDS =       -97.83267236
  atomic energy  EATOM  =       197.04175453
  Solvation  Ediel_sol  =         0.00000000
  ---------------------------------------------------
  free energy    TOTEN  =       -24.14825839 eV

  energy without entropy =      -24.14825839  energy(sigma->0) =      -24.14825839


--------------------------------------------------------------------------------------------------------




--------------------------------------- Iteration      1(   8)  ---------------------------------------


    POTLOK:  cpu time    0.1163: real time    0.1188
    SETDIJ:  cpu time    0.0020: real time    0.0020
    EDDIAG:  cpu time    0.0335: real time    0.0345
  RMM-DIIS:  cpu time    0.1306: real time    0.1358
    ORTHCH:  cpu time    0.0015: real time    0.0017
       DOS:  cpu time    0.0003: real time    0.0003
    CHARGE:  cpu time    0.0150: real time    0.0156
    MIXING:  cpu time    0.0040: real time    0.0041
    --------------------------------------------
      LOOP:  cpu time    0.3032: real time    0.3128

 eigenvalue-minimisations  :    64
 total energy-change (2. order) : 0.1455558E+00  (-0.1627160E-01)
 number of electron       8.0000002 magnetization 
 augmentation part        0.1852218 magnetization 

 Broyden mixing:
  rms(total) = 0.22733E-01    rms(broyden)= 0.22711E-01
  rms(prec ) = 0.52246E-01
  weight for this iteration     100.00

 eigenvalues of (default mixing * dielectric matrix)
  average eigenvalue GAMMA=   1.5450
  2.2479  0.9873  1.3999

 Free energy of the ion-electron system (eV)
  ---------------------------------------------------
  alpha Z        PSCENC =         0.23758649
  Ewald energy   TEWEN  =       128.33349872
  -Hartree energ DENC   =      -280.52596398
  -exchange      EXHF   =         0.00000000
  -V(xc)+E(xc)   XCENC  =        24.54380253
  PAW double counting   =       467.28203431     -468.06493405
  entropy T*S    EENTRO =        -0.00000000
  eigenvalues    EBANDS =       -92.85048113
  atomic energy  EATOM  =       197.04175453
  Solvation  Ediel_sol  =         0.00000000
  ---------------------------------------------------
  free energy    TOTEN  =       -24.00270257 eV

  energy without entropy =      -24.00270257  energy(sigma->0) =      -24.00270257


--------------------------------------------------------------------------------------------------------




--------------------------------------- Iteration      1(   9)  ---------------------------------------


    POTLOK:  cpu time    0.1165: real time    0.1200
    SETDIJ:  cpu time    0.0018: real time    0.0019
    EDDIAG:  cpu time    0.0334: real time    0.0343
  RMM-DIIS:  cpu time    0.1317: real time    0.1354
    ORTHCH:  cpu time    0.0016: real time    0.0016
       DOS:  cpu time    0.0002: real time    0.0002
    CHARGE:  cpu time    0.0154: real time    0.0157
    MIXING:  cpu time    0.0045: real time    0.0056
    --------------------------------------------
      LOOP:  cpu time    0.3051: real time    0.3146

 eigenvalue-minimisations  :    64
 total energy-change (2. order) : 0.5601780E-02  (-0.1089809E-02)
 number of electron       8.0000002 magnetization 
 augmentation part        0.1846628 magnetization 

 Broyden mixing:
  rms(total) = 0.19413E-01    rms(broyden)= 0.19410E-01
  rms(prec ) = 0.40022E-01
  weight for this iteration     100.00

 eigenvalues of (default mixing * dielectric matrix)
  average eigenvalue GAMMA=   2.0880
  1.0032  1.3677  2.9906  2.9906

 Free energy of the ion-electron system (eV)
  ---------------------------------------------------
  alpha Z        PSCENC =         0.23758649
  Ewald energy   TEWEN  =       128.33349872
  -Hartree energ DENC   =      -281.76889749
  -exchange      EXHF   =         0.00000000
  -V(xc)+E(xc)   XCENC  =        24.61192540
  PAW double counting   =       470.27780533     -471.06341203
  entropy T*S    EENTRO =        -0.00000000
  eigenvalues    EBANDS =       -91.66736174
  atomic energy  EATOM  =       197.04175453
  Solvation  Ediel_sol  =         0.00000000
  ---------------------------------------------------
  free energy    TOTEN  =       -23.99710079 eV

  energy without entropy =      -23.99710079  energy(sigma->0) =      -23.99710079


--------------------------------------------------------------------------------------------------------




--------------------------------------- Iteration      1(  10)  ---------------------------------------


    POTLOK:  cpu time    0.1109: real time    0.1154
    SETDIJ:  cpu time    0.0018: real time    0.0018
    EDDIAG:  cpu time    0.0330: real time    0.0339
  RMM-DIIS:  cpu time    0.1332: real time    0.1370
    ORTHCH:  cpu time    0.0018: real time    0.0018
       DOS:  cpu time    0.0002: real time    0.0002
    CHARGE:  cpu time    0.0154: real time    0.0158
    MIXING:  cpu time    0.0044: real time    0.0045
    --------------------------------------------
      LOOP:  cpu time    0.3006: real time    0.3103

 eigenvalue-minimisations  :    64
 total energy-change (2. order) : 0.6325976E-02  (-0.2428228E-02)
 number of electron       8.0000002 magnetization 
 augmentation part        0.1836307 magnetization 

 Broyden mixing:
  rms(total) = 0.27401E-01    rms(broyden)= 0.27399E-01
  rms(prec ) = 0.34967E-01
  weight for this iteration     100.00

 eigenvalues of (default mixing * dielectric matrix)
  average eigenvalue GAMMA=   1.7848
  3.0657  2.4138  1.2313  1.2313  0.9821

 Free energy of the ion-electron system (eV)
  ---------------------------------------------------
  alpha Z        PSCENC =         0.23758649
  Ewald energy   TEWEN  =       128.33349872
  -Hartree energ DENC   =      -283.95253019
  -exchange      EXHF   =         0.00000000
  -V(xc)+E(xc)   XCENC  =        24.68216895
  PAW double counting   =       454.73421470     -455.52325333
  entropy T*S    EENTRO =        -0.00000000
  eigenvalues    EBANDS =       -89.54421468
  atomic energy  EATOM  =       197.04175453
  Solvation  Ediel_sol  =         0.00000000
  ---------------------------------------------------
  free energy    TOTEN  =       -23.99077482 eV

  energy without entropy =      -23.99077482  energy(sigma->0) =      -23.99077482


--------------------------------------------------------------------------------------------------------




--------------------------------------- Iteration      1(  11)  ---------------------------------------


    POTLOK:  cpu time    0.1126: real time    0.1152
    SETDIJ:  cpu time    0.0016: real time    0.0017
    EDDIAG:  cpu time    0.0332: real time    0.0342
  RMM-DIIS:  cpu time    0.1332: real time    0.1371
    ORTHCH:  cpu time    0.0014: real time    0.0014
       DOS:  cpu time    0.0002: real time    0.0002
    CHARGE:  cpu time    0.0154: real time    0.0158
    MIXING:  cpu time    0.0046: real time    0.0047
    --------------------------------------------
      LOOP:  cpu time    0.3023: real time    0.3103

 eigenvalue-minimisations  :    64
 total energy-change (2. order) :-0.7763034E-03  (-0.8272486E-03)
 number of electron       8.0000002 magnetization 
 augmentation part        0.1839981 magnetization 

 Broyden mixing:
  rms(total) = 0.86909E-02    rms(broyden)= 0.86878E-02
  rms(prec ) = 0.14413E-01
  weight for this iteration     100.00

 eigenvalues of (default mixing * dielectric matrix)
  average eigenvalue GAMMA=   2.2640
  4.7739  3.0811  2.4279  1.2759  1.0126  1.0126

 Free energy of the ion-electron system (eV)
  ---------------------------------------------------
  alpha Z        PSCENC =         0.23758649
  Ewald energy   TEWEN  =       128.33349872
  -Hartree energ DENC   =      -283.84987511
  -exchange      EXHF   =         0.00000000
  -V(xc)+E(xc)   XCENC  =        24.69661616
  PAW double counting   =       463.80081336     -464.58231645
  entropy T*S    EENTRO =        -0.00000000
  eigenvalues    EBANDS =       -89.66962882
  atomic energy  EATOM  =       197.04175453
  Solvation  Ediel_sol  =         0.00000000
  ---------------------------------------------------
  free energy    TOTEN  =       -23.99155112 eV

  energy without entropy =      -23.99155112  energy(sigma->0) =      -23.99155112


--------------------------------------------------------------------------------------------------------




--------------------------------------- Iteration      1(  12)  ---------------------------------------


    POTLOK:  cpu time    0.1059: real time    0.1084
    SETDIJ:  cpu time    0.0017: real time    0.0017
    EDDIAG:  cpu time    0.0331: real time    0.0340
  RMM-DIIS:  cpu time    0.1321: real time    0.1373
    ORTHCH:  cpu time    0.0013: real time    0.0013
       DOS:  cpu time    0.0002: real time    0.0002
    CHARGE:  cpu time    0.0155: real time    0.0160
    MIXING:  cpu time    0.0054: real time    0.0055
    --------------------------------------------
      LOOP:  cpu time    0.2953: real time    0.3044

 eigenvalue-minimisations  :    64
 total energy-change (2. order) :-0.9383544E-02  (-0.3219311E-03)
 number of electron       8.0000002 magnetization 
 augmentation part        0.1841983 magnetization 

 Broyden mixing:
  rms(total) = 0.12033E-01    rms(broyden)= 0.12031E-01
  rms(prec ) = 0.15756E-01
  weight for this iteration     100.00

 eigenvalues of (default mixing * dielectric matrix)
  average eigenvalue GAMMA=   2.0127
  4.7657  2.9194  2.4251  1.2182  1.0055  1.0055  0.7499

 Free energy of the ion-electron system (eV)
  ---------------------------------------------------
  alpha Z        PSCENC =         0.23758649
  Ewald energy   TEWEN  =       128.33349872
  -Hartree energ DENC   =      -284.06368080
  -exchange      EXHF   =         0.00000000
  -V(xc)+E(xc)   XCENC  =        24.68859340
  PAW double counting   =       460.62260854     -461.40320913
  entropy T*S    EENTRO =        -0.00000000
  eigenvalues    EBANDS =       -89.45808642
  atomic energy  EATOM  =       197.04175453
  Solvation  Ediel_sol  =         0.00000000
  ---------------------------------------------------
  free energy    TOTEN  =       -24.00093466 eV

  energy without entropy =      -24.00093466  energy(sigma->0) =      -24.00093466


--------------------------------------------------------------------------------------------------------




--------------------------------------- Iteration      1(  13)  ---------------------------------------


    POTLOK:  cpu time    0.1052: real time    0.1073
    SETDIJ:  cpu time    0.0021: real time    0.0021
    EDDIAG:  cpu time    0.0330: real time    0.0340
  RMM-DIIS:  cpu time    0.1317: real time    0.1355
    ORTHCH:  cpu time    0.0014: real time    0.0014
       DOS:  cpu time    0.0002: real time    0.0002
    CHARGE:  cpu time    0.0154: real time    0.0161
    MIXING:  cpu time    0.0048: real time    0.0049
    --------------------------------------------
      LOOP:  cpu time    0.2937: real time    0.3014

 eigenvalue-minimisations  :    64
 total energy-change (2. order) :-0.5665310E-03  (-0.9968889E-04)
 number of electron       8.0000002 magnetization 
 augmentation part        0.1839568 magnetization 

 Broyden mixing:
  rms(total) = 0.45697E-02    rms(broyden)= 0.45695E-02
  rms(prec ) = 0.63469E-02
  weight for this iteration     100.00

 eigenvalues of (default mixing * dielectric matrix)
  average eigenvalue GAMMA=   2.3921
  6.0292  3.9950  2.4577  2.3276  1.2231  1.2231  0.9895  0.8915

 Free energy of the ion-electron system (eV)
  ---------------------------------------------------
  alpha Z        PSCENC =         0.23758649
  Ewald energy   TEWEN  =       128.33349872
  -Hartree energ DENC   =      -284.24555133
  -exchange      EXHF   =         0.00000000
  -V(xc)+E(xc)   XCENC  =        24.69361573
  PAW double counting   =       460.41936468     -461.20231630
  entropy T*S    EENTRO =        -0.00000000
  eigenvalues    EBANDS =       -89.27945371
  atomic energy  EATOM  =       197.04175453
  Solvation  Ediel_sol  =         0.00000000
  ---------------------------------------------------
  free energy    TOTEN  =       -24.00150120 eV

  energy without entropy =      -24.00150120  energy(sigma->0) =      -24.00150120


--------------------------------------------------------------------------------------------------------




--------------------------------------- Iteration      1(  14)  ---------------------------------------


    POTLOK:  cpu time    0.1044: real time    0.1061
    SETDIJ:  cpu time    0.0018: real time    0.0018
    EDDIAG:  cpu time    0.0333: real time    0.0336
  RMM-DIIS:  cpu time    0.1344: real time    0.1356
    ORTHCH:  cpu time    0.0014: real time    0.0014
       DOS:  cpu time    0.0002: real time    0.0002
    CHARGE:  cpu time    0.0155: real time    0.0156
    MIXING:  cpu time    0.0051: real time    0.0051
    --------------------------------------------
      LOOP:  cpu time    0.2960: real time    0.2995

 eigenvalue-minimisations  :    64
 total energy-change (2. order) :-0.2842777E-02  (-0.1236284E-03)
 number of electron       8.0000002 magnetization 
 augmentation part        0.1838392 magnetization 

 Broyden mixing:
  rms(total) = 0.27555E-02    rms(broyden)= 0.27539E-02
  rms(prec ) = 0.36332E-02
  weight for this iteration     100.00

 eigenvalues of (default mixing * dielectric matrix)
  average eigenvalue GAMMA=   2.3318
  6.4339  4.0043  2.5735  2.3588  1.2267  1.2267  0.9219  0.9847  1.2556

 Free energy of the ion-electron system (eV)
  ---------------------------------------------------
  alpha Z        PSCENC =         0.23758649
  Ewald energy   TEWEN  =       128.33349872
  -Hartree energ DENC   =      -284.24684168
  -exchange      EXHF   =         0.00000000
  -V(xc)+E(xc)   XCENC  =        24.68388498
  PAW double counting   =       459.75222477     -460.53644552
  entropy T*S    EENTRO =        -0.00000000
  eigenvalues    EBANDS =       -89.27000627
  atomic energy  EATOM  =       197.04175453
  Solvation  Ediel_sol  =         0.00000000
  ---------------------------------------------------
  free energy    TOTEN  =       -24.00434397 eV

  energy without entropy =      -24.00434397  energy(sigma->0) =      -24.00434397


--------------------------------------------------------------------------------------------------------




--------------------------------------- Iteration      1(  15)  ---------------------------------------


    POTLOK:  cpu time    0.1060: real time    0.1073
    SETDIJ:  cpu time    0.0017: real time    0.0017
    EDDIAG:  cpu time    0.0332: real time    0.0338
  RMM-DIIS:  cpu time    0.1368: real time    0.1401
    ORTHCH:  cpu time    0.0014: real time    0.0019
       DOS:  cpu time    0.0002: real time    0.0002
    CHARGE:  cpu time    0.0156: real time    0.0159
    MIXING:  cpu time    0.0054: real time    0.0055
    --------------------------------------------
      LOOP:  cpu time    0.3002: real time    0.3063

 eigenvalue-minimisations  :    64
 total energy-change (2. order) :-0.2745531E-03  (-0.4206256E-05)
 number of electron       8.0000002 magnetization 
 augmentation part        0.1838039 magnetization 

 Broyden mixing:
  rms(total) = 0.16949E-02    rms(broyden)= 0.16947E-02
  rms(prec ) = 0.22416E-02
  weight for this iteration     100.00

 eigenvalues of (default mixing * dielectric matrix)
  average eigenvalue GAMMA=   2.5296
  7.5446  4.8160  2.8227  2.6119  2.0971  1.2600  1.2600  0.9921  0.9921  0.9001

 Free energy of the ion-electron system (eV)
  ---------------------------------------------------
  alpha Z        PSCENC =         0.23758649
  Ewald energy   TEWEN  =       128.33349872
  -Hartree energ DENC   =      -284.24149544
  -exchange      EXHF   =         0.00000000
  -V(xc)+E(xc)   XCENC  =        24.68412777
  PAW double counting   =       459.89102546     -460.67472178
  entropy T*S    EENTRO =        -0.00000000
  eigenvalues    EBANDS =       -89.27639428
  atomic energy  EATOM  =       197.04175453
  Solvation  Ediel_sol  =         0.00000000
  ---------------------------------------------------
  free energy    TOTEN  =       -24.00461853 eV

  energy without entropy =      -24.00461853  energy(sigma->0) =      -24.00461853


--------------------------------------------------------------------------------------------------------




--------------------------------------- Iteration      1(  16)  ---------------------------------------


    POTLOK:  cpu time    0.1043: real time    0.1069
    SETDIJ:  cpu time    0.0017: real time    0.0017
    EDDIAG:  cpu time    0.0332: real time    0.0336
  RMM-DIIS:  cpu time    0.1335: real time    0.1356
    ORTHCH:  cpu time    0.0014: real time    0.0014
       DOS:  cpu time    0.0002: real time    0.0002
    CHARGE:  cpu time    0.0153: real time    0.0155
    MIXING:  cpu time    0.0066: real time    0.0067
    --------------------------------------------
      LOOP:  cpu time    0.2962: real time    0.3015

 eigenvalue-minimisations  :    64
 total energy-change (2. order) :-0.2106671E-03  (-0.9802192E-05)
 number of electron       8.0000002 magnetization 
 augmentation part        0.1838503 magnetization 

 Broyden mixing:
  rms(total) = 0.60640E-03    rms(broyden)= 0.60599E-03
  rms(prec ) = 0.83325E-03
  weight for this iteration     100.00

 eigenvalues of (default mixing * dielectric matrix)
  average eigenvalue GAMMA=   2.4889
  7.7256  4.8065  3.3384  2.4068  2.1102  1.6075  1.2478  1.2478  1.0290  0.9294
  0.9294

 Free energy of the ion-electron system (eV)
  ---------------------------------------------------
  alpha Z        PSCENC =         0.23758649
  Ewald energy   TEWEN  =       128.33349872
  -Hartree energ DENC   =      -284.20239165
  -exchange      EXHF   =         0.00000000
  -V(xc)+E(xc)   XCENC  =        24.68286071
  PAW double counting   =       459.90968387     -460.69282369
  entropy T*S    EENTRO =        -0.00000000
  eigenvalues    EBANDS =       -89.31499818
  atomic energy  EATOM  =       197.04175453
  Solvation  Ediel_sol  =         0.00000000
  ---------------------------------------------------
  free energy    TOTEN  =       -24.00482919 eV

  energy without entropy =      -24.00482919  energy(sigma->0) =      -24.00482919


--------------------------------------------------------------------------------------------------------




--------------------------------------- Iteration      1(  17)  ---------------------------------------


    POTLOK:  cpu time    0.1070: real time    0.1086
    SETDIJ:  cpu time    0.0018: real time    0.0018
    EDDIAG:  cpu time    0.0341: real time    0.0347
  RMM-DIIS:  cpu time    0.1336: real time    0.1350
    ORTHCH:  cpu time    0.0017: real time    0.0018
       DOS:  cpu time    0.0002: real time    0.0002
    CHARGE:  cpu time    0.0156: real time    0.0158
    MIXING:  cpu time    0.0056: real time    0.0057
    --------------------------------------------
      LOOP:  cpu time    0.2996: real time    0.3035

 eigenvalue-minimisations  :    64
 total energy-change (2. order) :-0.4017160E-04  (-0.2414672E-05)
 number of electron       8.0000002 magnetization 
 augmentation part        0.1838197 magnetization 

 Broyden mixing:
  rms(total) = 0.48907E-03    rms(broyden)= 0.48905E-03
  rms(prec ) = 0.69061E-03
  weight for this iteration     100.00

 eigenvalues of (default mixing * dielectric matrix)
  average eigenvalue GAMMA=   2.5810
  8.4368  5.2845  3.8459  2.5203  2.5203  1.9023  1.2864  1.2864  1.0463  0.9836
  0.9474  0.9123

 Free energy of the ion-electron system (eV)
  ---------------------------------------------------
  alpha Z        PSCENC =         0.23758649
  Ewald energy   TEWEN  =       128.33349872
  -Hartree energ DENC   =      -284.24523473
  -exchange      EXHF   =         0.00000000
  -V(xc)+E(xc)   XCENC  =        24.68484834
  PAW double counting   =       459.89844741     -460.68192374
  entropy T*S    EENTRO =        -0.00000000
  eigenvalues    EBANDS =       -89.27384638
  atomic energy  EATOM  =       197.04175453
  Solvation  Ediel_sol  =         0.00000000
  ---------------------------------------------------
  free energy    TOTEN  =       -24.00486936 eV

  energy without entropy =      -24.00486936  energy(sigma->0) =      -24.00486936


--------------------------------------------------------------------------------------------------------




--------------------------------------- Iteration      1(  18)  ---------------------------------------


    POTLOK:  cpu time    0.1219: real time    0.1251
    SETDIJ:  cpu time    0.0018: real time    0.0018
    EDDIAG:  cpu time    0.0332: real time    0.0340
  RMM-DIIS:  cpu time    0.1348: real time    0.1375
    ORTHCH:  cpu time    0.0017: real time    0.0018
       DOS:  cpu time    0.0002: real time    0.0002
    CHARGE:  cpu time    0.0155: real time    0.0157
    MIXING:  cpu time    0.0061: real time    0.0062
    --------------------------------------------
      LOOP:  cpu time    0.3151: real time    0.3223

 eigenvalue-minimisations  :    64
 total energy-change (2. order) :-0.1053169E-04  (-0.4392828E-06)
 number of electron       8.0000002 magnetization 
 augmentation part        0.1838308 magnetization 

 Broyden mixing:
  rms(total) = 0.66504E-04    rms(broyden)= 0.66440E-04
  rms(prec ) = 0.96101E-04
  weight for this iteration     100.00

 eigenvalues of (default mixing * dielectric matrix)
  average eigenvalue GAMMA=   2.5955
  8.5199  5.4680  3.8425  3.0822  2.3253  2.3253  1.7035  1.2676  1.2676  0.9032
  1.0628  0.9868  0.9868

 Free energy of the ion-electron system (eV)
  ---------------------------------------------------
  alpha Z        PSCENC =         0.23758649
  Ewald energy   TEWEN  =       128.33349872
  -Hartree energ DENC   =      -284.22671906
  -exchange      EXHF   =         0.00000000
  -V(xc)+E(xc)   XCENC  =        24.68393913
  PAW double counting   =       459.87515299     -460.65845680
  entropy T*S    EENTRO =        -0.00000000
  eigenvalues    EBANDS =       -89.29163589
  atomic energy  EATOM  =       197.04175453
  Solvation  Ediel_sol  =         0.00000000
  ---------------------------------------------------
  free energy    TOTEN  =       -24.00487990 eV

  energy without entropy =      -24.00487990  energy(sigma->0) =      -24.00487990


--------------------------------------------------------------------------------------------------------




--------------------------------------- Iteration      1(  19)  ---------------------------------------


    POTLOK:  cpu time    0.1106: real time    0.1126
    SETDIJ:  cpu time    0.0018: real time    0.0018
    EDDIAG:  cpu time    0.0330: real time    0.0336
  RMM-DIIS:  cpu time    0.1091: real time    0.1111
    ORTHCH:  cpu time    0.0013: real time    0.0013
       DOS:  cpu time    0.0002: real time    0.0002
    CHARGE:  cpu time    0.0159: real time    0.0162
    MIXING:  cpu time    0.0064: real time    0.0066
    --------------------------------------------
      LOOP:  cpu time    0.2783: real time    0.2834

 eigenvalue-minimisations  :    48
 total energy-change (2. order) :-0.3946111E-05  (-0.5097752E-07)
 number of electron       8.0000002 magnetization 
 augmentation part        0.1838357 magnetization 

 Broyden mixing:
  rms(total) = 0.87514E-04    rms(broyden)= 0.87488E-04
  rms(prec ) = 0.12351E-03
  weight for this iteration     100.00

 eigenvalues of (default mixing * dielectric matrix)
  average eigenvalue GAMMA=   2.5697
  8.5886  5.6276  3.7973  3.7973  2.4353  2.4353  1.9585  1.2702  1.2702  1.0369
  0.9270  0.9270  0.9519  0.9519

 Free energy of the ion-electron system (eV)
  ---------------------------------------------------
  alpha Z        PSCENC =         0.23758649
  Ewald energy   TEWEN  =       128.33349872
  -Hartree energ DENC   =      -284.22212499
  -exchange      EXHF   =         0.00000000
  -V(xc)+E(xc)   XCENC  =        24.68358989
  PAW double counting   =       459.84847975     -460.63176473
  entropy T*S    EENTRO =        -0.00000000
  eigenvalues    EBANDS =       -89.29590350
  atomic energy  EATOM  =       197.04175453
  Solvation  Ediel_sol  =         0.00000000
  ---------------------------------------------------
  free energy    TOTEN  =       -24.00488384 eV

  energy without entropy =      -24.00488384  energy(sigma->0) =      -24.00488384


--------------------------------------------------------------------------------------------------------




--------------------------------------- Iteration      1(  20)  ---------------------------------------


    POTLOK:  cpu time    0.1107: real time    0.1123
    SETDIJ:  cpu time    0.0016: real time    0.0017
    EDDIAG:  cpu time    0.0329: real time    0.0335
  RMM-DIIS:  cpu time    0.1066: real time    0.1086
    ORTHCH:  cpu time    0.0017: real time    0.0018
       DOS:  cpu time    0.0002: real time    0.0002
    --------------------------------------------
      LOOP:  cpu time    0.2537: real time    0.2580

 eigenvalue-minimisations  :    48
 total energy-change (2. order) :-0.9102179E-06  (-0.1315468E-07)
 number of electron       8.0000002 magnetization 
 augmentation part        0.1838357 magnetization 

 Free energy of the ion-electron system (eV)
  ---------------------------------------------------
  alpha Z        PSCENC =         0.23758649
  Ewald energy   TEWEN  =       128.33349872
  -Hartree energ DENC   =      -284.22422528
  -exchange      EXHF   =         0.00000000
  -V(xc)+E(xc)   XCENC  =        24.68366690
  PAW double counting   =       459.84868915     -460.63200364
  entropy T*S    EENTRO =        -0.00000000
  eigenvalues    EBANDS =       -89.29385162
  atomic energy  EATOM  =       197.04175453
  Solvation  Ediel_sol  =         0.00000000
  ---------------------------------------------------
  free energy    TOTEN  =       -24.00488475 eV

  energy without entropy =      -24.00488475  energy(sigma->0) =      -24.00488475


--------------------------------------------------------------------------------------------------------




 average (electrostatic) potential at core
  the test charge radii are     0.5201  0.6991
  (the norm of the test charge is              1.0000)
       1 -41.5895       2 -41.3244       3 -41.5976       4 -41.3533       5 -57.9985
 
 
 
 E-fermi :  -8.2130     XC(G=0):  -0.6882     alpha+bet : -0.2066


 k-point     1 :       0.2500    0.2500    0.2500
  band No.  band energies     occupation 
      1     -16.8481      2.00000
      2      -9.3549      2.00000
      3      -9.2901      2.00000
      4      -9.1538      2.00000
      5      -0.3222      0.00000
      6       0.5476      0.00000
      7       0.6532      0.00000
      8       0.6867      0.00000

 k-point     2 :      -0.2500    0.2500    0.2500
  band No.  band energies     occupation 
      1     -16.8481      2.00000
      2      -9.3549      2.00000
      3      -9.2900      2.00000
      4      -9.1539      2.00000
      5      -0.3225      0.00000
      6       0.5441      0.00000
      7       0.6476      0.00000
      8       0.6925      0.00000

 k-point     3 :       0.2500   -0.2500    0.2500
  band No.  band energies     occupation 
      1     -16.8481      2.00000
      2      -9.3550      2.00000
      3      -9.2900      2.00000
      4      -9.1538      2.00000
      5      -0.3273      0.00000
      6       0.5510      0.00000
      7       0.6611      0.00000
      8       0.7093      0.00000

 k-point     4 :      -0.2500   -0.2500    0.2500
  band No.  band energies     occupation 
      1     -16.8481      2.00000
      2      -9.3549      2.00000
      3      -9.2901      2.00000
      4      -9.1538      2.00000
      5      -0.3260      0.00000
      6       0.5515      0.00000
      7       0.6585      0.00000
      8       0.7045      0.00000


--------------------------------------------------------------------------------------------------------


 soft charge-density along one line, spin component           1
         0         1         2         3         4         5         6         7         8         9
 total charge-density along one line
 
 pseudopotential strength for first ion, spin component:           1
 -2.342  -4.035  -0.001  -0.001   0.001
 -4.035  -6.868  -0.003  -0.004   0.002
 -0.001  -0.003  -0.337   0.002  -0.001
 -0.001  -0.004   0.002  -0.335  -0.001
  0.001   0.002  -0.001  -0.001  -0.338
 total augmentation occupancy for first ion, spin component:           1
  3.589  -0.645   0.232   0.352  -0.140
 -0.645   0.131  -0.043  -0.065   0.026
  0.232  -0.043   0.022   0.019  -0.007
  0.352  -0.065   0.019   0.038  -0.011
 -0.140   0.026  -0.007  -0.011   0.014


------------------------ aborting loop because EDIFF is reached ----------------------------------------


    CHARGE:  cpu time    0.0152: real time    0.0156
    FORLOC:  cpu time    0.0101: real time    0.0102
    FORNL :  cpu time    0.0175: real time    0.0178
    STRESS:  cpu time    0.1383: real time    0.1404
    FORCOR:  cpu time    0.1118: real time    0.1134
    FORHAR:  cpu time    0.0344: real time    0.0348
    MIXING:  cpu time    0.0064: real time    0.0065
    OFIELD:  cpu time    0.0000: real time    0.0000

  FORCE on cell =-STRESS in cart. coord.  units (eV):
  Direction    XX          YY          ZZ          XY          YZ          ZX
  --------------------------------------------------------------------------------------
  Alpha Z     0.23759     0.23759     0.23759
  Ewald      41.29842    44.70950    42.32554     1.23970    -0.80152    -0.88357
  Hartree    94.05417    96.81759    93.35533     0.07782    -0.76712     0.01339
  E(xc)     -27.14460   -27.15976   -27.13971     0.00351    -0.00895    -0.00115
  Local    -194.52396  -200.21875  -194.28523    -0.93583     1.72267     0.54462
  n-local   -15.72056   -15.83074   -15.75181    -0.03026    -0.06229     0.03498
  augment     0.12193     0.11607     0.11716    -0.00336    -0.00233     0.00304
  Kinetic   100.59824   101.37712   100.34242    -0.15002     0.49325     0.03135
  Fock        0.00000     0.00000     0.00000     0.00000     0.00000     0.00000
  -------------------------------------------------------------------------------------
  Total      -1.07876     0.04862    -0.79871     0.20154     0.57371    -0.25734
  in kB      -1.69508     0.07640    -1.25504     0.31669     0.90148    -0.40436
  external pressure =       -0.96 kB  Pullay stress =        0.00 kB

  kinetic pressure (ideal gas correction) =      0.00 kB
  total pressure  =     -0.96 kB
  Total+kin.    -1.695       0.076      -1.255       0.317       0.901      -0.404

 VOLUME and BASIS-vectors are now :
 -----------------------------------------------------------------------------
  energy-cutoff  :      400.00
  volume of cell :     1019.63
      direct lattice vectors                 reciprocal lattice vectors
    10.139193443  0.000000000  0.000000000     0.098627174  0.000558510 -0.000475254
    -0.055765756  9.847660359  0.000000000     0.000000000  0.101546963  0.002657716
     0.050721563 -0.267269064 10.211910342     0.000000000  0.000000000  0.097924871

  length of vectors
    10.139193443  9.847818254 10.215533186     0.098629901  0.101581736  0.097924871


 FORCES acting on ions
    electron-ion (+dipol)            ewald-force                    non-local-force                 convergence-correction
 -----------------------------------------------------------------------------------------------
   -.169E+02 0.280E+02 0.421E+02   0.188E+02 -.313E+02 -.468E+02   -.179E+01 0.294E+01 0.451E+01   0.703E-04 -.102E-03 -.185E-03
   0.513E+02 -.590E+01 0.321E+01   -.557E+02 0.644E+01 -.347E+01   0.512E+01 -.584E+00 0.333E+00   -.210E-03 0.264E-04 -.217E-04
   -.239E+02 -.476E+02 0.132E+01   0.266E+02 0.531E+02 -.138E+01   -.256E+01 -.507E+01 0.178E+00   0.989E-04 0.184E-03 -.122E-04
   -.115E+02 0.244E+02 -.442E+02   0.125E+02 -.265E+02 0.480E+02   -.114E+01 0.244E+01 -.443E+01   0.524E-04 -.930E-04 0.190E-03
   0.171E+01 0.148E+01 -.317E+01   -.214E+01 -.173E+01 0.368E+01   -.382E+00 -.734E-01 0.146E+00   0.380E-05 0.277E-04 -.596E-04
 -----------------------------------------------------------------------------------------------
   0.755E+00 0.350E+00 -.729E+00   -.711E-14 0.355E-14 0.000E+00   -.755E+00 -.350E+00 0.729E+00   0.152E-04 0.428E-04 -.885E-04
 
 
 POSITION                                       TOTAL-FORCE (eV/Angst)
 -----------------------------------------------------------------------------------
      5.44808      3.91356      3.69045         0.111255     -0.350929     -0.218843
      3.99433      4.61084      4.47753         0.696935     -0.045208      0.076666
      5.59122      5.45133      4.51992         0.119919      0.410498      0.116763
      5.35359      3.95459      5.50445        -0.116324      0.301110     -0.630329
      5.10513      4.48219      4.54908        -0.812201     -0.314757      0.655666
 -----------------------------------------------------------------------------------
    total drift:                               -0.000415      0.000715     -0.000077


--------------------------------------------------------------------------------------------------------



  FREE ENERGIE OF THE ION-ELECTRON SYSTEM (eV)
  ---------------------------------------------------
  free  energy   TOTEN  =       -24.00488475 eV

  energy  without entropy=      -24.00488475  energy(sigma->0) =      -24.00488475
 


--------------------------------------------------------------------------------------------------------


    POTLOK:  cpu time    0.1133: real time    0.1148


--------------------------------------------------------------------------------------------------------


 stress matrix after NEB project (eV)
     -1.07876      0.20154     -0.25734
      0.20154      0.04862      0.57371
     -0.25734      0.57371     -0.79871
  FORCES: max atom, RMS     1.090248    0.716064
  FORCE total and by dimension    1.601167    0.812201
  Stress total and by dimension    1.635846    1.078758
           RANDOM_SEED =         581394395                0                0
           RANDOM_SEED =         581394395               30                0
   IONSTEP:  cpu time    0.0028: real time    0.0060

  ENERGY OF THE ELECTRON-ION-THERMOSTAT SYSTEM (eV)
  ---------------------------------------------------
% ion-electron   TOTEN  =       -24.004885  see above
  kinetic energy EKIN   =         0.000443
  kin. lattice  EKIN_LAT=         0.000000  (temperature    0.86 K)
  nose potential ES     =         0.000000
  nose kinetic   EPS    =         0.000000
  ---------------------------------------------------
  total energy   ETOTAL =       -24.004441 eV

  maximum distance moved by ions :      0.17E-03

    WAVPRE:  cpu time    0.0342: real time    0.0348
    FEWALD:  cpu time    0.0008: real time    0.0010
    ORTHCH:  cpu time    0.0080: real time    0.0081
     LOOP+:  cpu time    5.9545: real time    6.1418


--------------------------------------- Iteration      2(   1)  ---------------------------------------


    POTLOK:  cpu time    0.1119: real time    0.1140
    SETDIJ:  cpu time    0.0018: real time    0.0018
     EDDAV:  cpu time    0.1729: real time    0.1764
       DOS:  cpu time    0.0002: real time    0.0002
    CHARGE:  cpu time    0.0149: real time    0.0153
    MIXING:  cpu time    0.0039: real time    0.0039
    --------------------------------------------
      LOOP:  cpu time    0.3057: real time    0.3116

 eigenvalue-minimisations  :    96
 total energy-change (2. order) :-0.3420974E-02  (-0.3693642E-03)
 number of electron       8.0000002 magnetization 
 augmentation part        0.1839378 magnetization 

 Broyden mixing:
  rms(total) = 0.25990E-02    rms(broyden)= 0.25968E-02
  rms(prec ) = 0.30619E-02
  weight for this iteration     100.00

 Free energy of the ion-electron system (eV)
  ---------------------------------------------------
  alpha Z        PSCENC =         0.23758649
  Ewald energy   TEWEN  =       128.40730534
  -Hartree energ DENC   =      -284.27429132
  -exchange      EXHF   =         0.00000000
  -V(xc)+E(xc)   XCENC  =        24.68615633
  PAW double counting   =       459.85335679     -460.63668580
  entropy T*S    EENTRO =        -0.00000000
  eigenvalues    EBANDS =       -89.32348718
  atomic energy  EATOM  =       197.04175453
  Solvation  Ediel_sol  =         0.00000000
  ---------------------------------------------------
  free energy    TOTEN  =       -24.00830482 eV

  energy without entropy =      -24.00830482  energy(sigma->0) =      -24.00830482


--------------------------------------------------------------------------------------------------------




--------------------------------------- Iteration      2(   2)  ---------------------------------------


    POTLOK:  cpu time    0.1155: real time    0.1183
    SETDIJ:  cpu time    0.0018: real time    0.0018
    EDDIAG:  cpu time    0.0340: real time    0.0348
  RMM-DIIS:  cpu time    0.1339: real time    0.1370
    ORTHCH:  cpu time    0.0023: real time    0.0023
       DOS:  cpu time    0.0002: real time    0.0002
    CHARGE:  cpu time    0.0152: real time    0.0156
    MIXING:  cpu time    0.0038: real time    0.0039
    --------------------------------------------
      LOOP:  cpu time    0.3068: real time    0.3139

 eigenvalue-minimisations  :    64
 total energy-change (2. order) : 0.1171782E-05  (-0.1050769E-04)
 number of electron       8.0000002 magnetization 
 augmentation part        0.1839246 magnetization 

 Broyden mixing:
  rms(total) = 0.16343E-02    rms(broyden)= 0.16339E-02
  rms(prec ) = 0.18965E-02
  weight for this iteration     100.00

 eigenvalues of (default mixing * dielectric matrix)
  average eigenvalue GAMMA=   2.0027
  2.0027

 Free energy of the ion-electron system (eV)
  ---------------------------------------------------
  alpha Z        PSCENC =         0.23758649
  Ewald energy   TEWEN  =       128.40730534
  -Hartree energ DENC   =      -284.28973042
  -exchange      EXHF   =         0.00000000
  -V(xc)+E(xc)   XCENC  =        24.68694031
  PAW double counting   =       460.07946511     -460.86295794
  entropy T*S    EENTRO =        -0.00000000
  eigenvalues    EBANDS =       -89.30866706
  atomic energy  EATOM  =       197.04175453
  Solvation  Ediel_sol  =         0.00000000
  ---------------------------------------------------
  free energy    TOTEN  =       -24.00830364 eV

  energy without entropy =      -24.00830364  energy(sigma->0) =      -24.00830364


--------------------------------------------------------------------------------------------------------




--------------------------------------- Iteration      2(   3)  ---------------------------------------


    POTLOK:  cpu time    0.1133: real time    0.1154
    SETDIJ:  cpu time    0.0019: real time    0.0020
    EDDIAG:  cpu time    0.0328: real time    0.0335
  RMM-DIIS:  cpu time    0.1344: real time    0.1369
    ORTHCH:  cpu time    0.0019: real time    0.0019
       DOS:  cpu time    0.0002: real time    0.0002
    CHARGE:  cpu time    0.0152: real time    0.0156
    MIXING:  cpu time    0.0041: real time    0.0042
    --------------------------------------------
      LOOP:  cpu time    0.3038: real time    0.3096

 eigenvalue-minimisations  :    64
 total energy-change (2. order) : 0.1272278E-05  (-0.1535753E-05)
 number of electron       8.0000002 magnetization 
 augmentation part        0.1839117 magnetization 

 Broyden mixing:
  rms(total) = 0.34868E-03    rms(broyden)= 0.34845E-03
  rms(prec ) = 0.42733E-03
  weight for this iteration     100.00

 eigenvalues of (default mixing * dielectric matrix)
  average eigenvalue GAMMA=   1.6513
  1.1221  2.1806

 Free energy of the ion-electron system (eV)
  ---------------------------------------------------
  alpha Z        PSCENC =         0.23758649
  Ewald energy   TEWEN  =       128.40730534
  -Hartree energ DENC   =      -284.29819729
  -exchange      EXHF   =         0.00000000
  -V(xc)+E(xc)   XCENC  =        24.68741428
  PAW double counting   =       460.22564464     -461.00923135
  entropy T*S    EENTRO =        -0.00000000
  eigenvalues    EBANDS =       -89.30057901
  atomic energy  EATOM  =       197.04175453
  Solvation  Ediel_sol  =         0.00000000
  ---------------------------------------------------
  free energy    TOTEN  =       -24.00830237 eV

  energy without entropy =      -24.00830237  energy(sigma->0) =      -24.00830237


--------------------------------------------------------------------------------------------------------




--------------------------------------- Iteration      2(   4)  ---------------------------------------


    POTLOK:  cpu time    0.1153: real time    0.1173
    SETDIJ:  cpu time    0.0019: real time    0.0019
    EDDIAG:  cpu time    0.0338: real time    0.0345
  RMM-DIIS:  cpu time    0.1086: real time    0.1123
    ORTHCH:  cpu time    0.0019: real time    0.0019
       DOS:  cpu time    0.0002: real time    0.0002
    --------------------------------------------
      LOOP:  cpu time    0.2616: real time    0.2680

 eigenvalue-minimisations  :    48
 total energy-change (2. order) : 0.1109169E-06  (-0.4561993E-07)
 number of electron       8.0000002 magnetization 
 augmentation part        0.1839117 magnetization 

 Free energy of the ion-electron system (eV)
  ---------------------------------------------------
  alpha Z        PSCENC =         0.23758649
  Ewald energy   TEWEN  =       128.40730534
  -Hartree energ DENC   =      -284.29510638
  -exchange      EXHF   =         0.00000000
  -V(xc)+E(xc)   XCENC  =        24.68729180
  PAW double counting   =       460.23020537     -461.01375111
  entropy T*S    EENTRO =        -0.00000000
  eigenvalues    EBANDS =       -89.30358829
  atomic energy  EATOM  =       197.04175453
  Solvation  Ediel_sol  =         0.00000000
  ---------------------------------------------------
  free energy    TOTEN  =       -24.00830226 eV

  energy without entropy =      -24.00830226  energy(sigma->0) =      -24.00830226


--------------------------------------------------------------------------------------------------------




 average (electrostatic) potential at core
  the test charge radii are     0.5201  0.6991
  (the norm of the test charge is              1.0000)
       1 -41.5802       2 -41.3363       3 -41.5877       4 -41.3645       5 -57.9955
 
 
 
 E-fermi :  -8.2164     XC(G=0):  -0.6925     alpha+bet : -0.2066


 k-point     1 :       0.2500    0.2500    0.2500
  band No.  band energies     occupation 
      1     -16.8496      2.00000
      2      -9.3548      2.00000
      3      -9.2859      2.00000
      4      -9.1615      2.00000
      5      -0.3226      0.00000
      6       0.5459      0.00000
      7       0.6524      0.00000
      8       0.6826      0.00000

 k-point     2 :      -0.2500    0.2500    0.2500
  band No.  band energies     occupation 
      1     -16.8496      2.00000
      2      -9.3548      2.00000
      3      -9.2859      2.00000
      4      -9.1615      2.00000
      5      -0.3228      0.00000
      6       0.5424      0.00000
      7       0.6469      0.00000
      8       0.6883      0.00000

 k-point     3 :       0.2500   -0.2500    0.2500
  band No.  band energies     occupation 
      1     -16.8496      2.00000
      2      -9.3548      2.00000
      3      -9.2859      2.00000
      4      -9.1615      2.00000
      5      -0.3279      0.00000
      6       0.5505      0.00000
      7       0.6606      0.00000
      8       0.7041      0.00000

 k-point     4 :      -0.2500   -0.2500    0.2500
  band No.  band energies     occupation 
      1     -16.8496      2.00000
      2      -9.3547      2.00000
      3      -9.2859      2.00000
      4      -9.1615      2.00000
      5      -0.3264      0.00000
      6       0.5515      0.00000
      7       0.6572      0.00000
      8       0.6992      0.00000


--------------------------------------------------------------------------------------------------------


 soft charge-density along one line, spin component           1
         0         1         2         3         4         5         6         7         8         9
 total charge-density along one line
 
 pseudopotential strength for first ion, spin component:           1
 -2.342  -4.035  -0.001  -0.001   0.001
 -4.035  -6.868  -0.003  -0.004   0.002
 -0.001  -0.003  -0.337   0.002  -0.001
 -0.001  -0.004   0.002  -0.335  -0.001
  0.001   0.002  -0.001  -0.001  -0.338
 total augmentation occupancy for first ion, spin component:           1
  3.585  -0.644   0.231   0.351  -0.140
 -0.644   0.130  -0.043  -0.065   0.026
  0.231  -0.043   0.022   0.019  -0.007
  0.351  -0.065   0.019   0.038  -0.011
 -0.140   0.026  -0.007  -0.011   0.014


------------------------ aborting loop because EDIFF is reached ----------------------------------------


    CHARGE:  cpu time    0.0153: real time    0.0157
    FORLOC:  cpu time    0.0101: real time    0.0102
    FORNL :  cpu time    0.0174: real time    0.0175
    STRESS:  cpu time    0.1385: real time    0.1402
    FORCOR:  cpu time    0.1129: real time    0.1147
    FORHAR:  cpu time    0.0371: real time    0.0377
    MIXING:  cpu time    0.0049: real time    0.0050
    OFIELD:  cpu time    0.0000: real time    0.0000

  FORCE on cell =-STRESS in cart. coord.  units (eV):
  Direction    XX          YY          ZZ          XY          YZ          ZX
  --------------------------------------------------------------------------------------
  Alpha Z     0.23759     0.23759     0.23759
  Ewald      41.37128    44.70493    42.33106     1.18626    -0.84057    -0.83385
  Hartree    94.05967    96.86485    93.36686     0.07996    -0.74946     0.00859
  E(xc)     -27.14870   -27.16316   -27.14374     0.00355    -0.00859    -0.00123
  Local    -194.57194  -200.28726  -194.30012    -0.90603     1.71701     0.52186
  n-local   -15.73172   -15.83305   -15.75970    -0.02777    -0.05778     0.03232
  augment     0.12153     0.11627     0.11703    -0.00316    -0.00204     0.00283
  Kinetic   100.63102   101.37313   100.37112    -0.15271     0.47379     0.03585
  Fock        0.00000     0.00000     0.00000     0.00000     0.00000     0.00000
  -------------------------------------------------------------------------------------
  Total      -1.03128     0.01330    -0.77991     0.18010     0.53237    -0.23363
  in kB      -1.62048     0.02089    -1.22549     0.28300     0.83654    -0.36712
  external pressure =       -0.94 kB  Pullay stress =        0.00 kB

  kinetic pressure (ideal gas correction) =      0.00 kB
  total pressure  =     -0.94 kB
  Total+kin.    -1.618       0.022      -1.224       0.283       0.836      -0.367

 VOLUME and BASIS-vectors are now :
 -----------------------------------------------------------------------------
  energy-cutoff  :      400.00
  volume of cell :     1019.63
      direct lattice vectors                 reciprocal lattice vectors
    10.139193443  0.000000000  0.000000000     0.098627174  0.000558510 -0.000475254
    -0.055765756  9.847660359  0.000000000     0.000000000  0.101546963  0.002657716
     0.050721563 -0.267269064 10.211910342     0.000000000  0.000000000  0.097924871

  length of vectors
    10.139193443  9.847818254 10.215533186     0.098629901  0.101581736  0.097924871


 FORCES acting on ions
    electron-ion (+dipol)            ewald-force                    non-local-force                 convergence-correction
 -----------------------------------------------------------------------------------------------
   -.168E+02 0.280E+02 0.421E+02   0.187E+02 -.312E+02 -.467E+02   -.179E+01 0.293E+01 0.449E+01   -.493E-03 -.251E-04 0.673E-03
   0.514E+02 -.592E+01 0.322E+01   -.559E+02 0.646E+01 -.348E+01   0.514E+01 -.587E+00 0.335E+00   0.143E-03 -.256E-03 0.467E-03
   -.239E+02 -.475E+02 0.131E+01   0.266E+02 0.530E+02 -.137E+01   -.255E+01 -.506E+01 0.176E+00   -.535E-03 -.482E-03 0.437E-03
   -.115E+02 0.244E+02 -.443E+02   0.126E+02 -.266E+02 0.481E+02   -.115E+01 0.245E+01 -.445E+01   -.524E-03 0.741E-04 -.585E-04
   0.157E+01 0.140E+01 -.300E+01   -.197E+01 -.163E+01 0.347E+01   -.351E+00 -.599E-01 0.117E+00   -.191E-02 -.960E-03 0.210E-02
 -----------------------------------------------------------------------------------------------
[...]
      5.59567      5.47244      4.52886        -0.157013     -0.290396      0.041960
      5.34874      3.97005      5.46978         0.165640     -0.279720      0.470124
      5.10158      4.48102      4.55153         0.651943      0.356425     -0.754153
 -----------------------------------------------------------------------------------
    total drift:                                0.000341     -0.000276     -0.000141


--------------------------------------------------------------------------------------------------------



  FREE ENERGIE OF THE ION-ELECTRON SYSTEM (eV)
  ---------------------------------------------------
  free  energy   TOTEN  =       -24.01585994 eV

  energy  without entropy=      -24.01585994  energy(sigma->0) =      -24.01585994
 
 d Force =-0.5967126E-02[-0.707E-02,-0.486E-02]  d Energy =-0.5962748E-02-0.438E-05
 d Force =-0.3019101E+00[-0.305E+00,-0.299E+00]  d Ewald  =-0.3019056E+00-0.458E-05


--------------------------------------------------------------------------------------------------------


    POTLOK:  cpu time    0.1122: real time    0.1146


--------------------------------------------------------------------------------------------------------


 stress matrix after NEB project (eV)
      0.15650     -0.25992      0.26738
     -0.25992     -0.58774     -0.36088
      0.26738     -0.36088     -0.19358
  FORCES: max atom, RMS     1.058686    0.631738
  FORCE total and by dimension    1.412609    0.754153
  Stress total and by dimension    0.972613    0.587736
           RANDOM_SEED =         581394395               30                0
   IONSTEP:  cpu time    0.0001: real time    0.0001

  ENERGY OF THE ELECTRON-ION-THERMOSTAT SYSTEM (eV)
  ---------------------------------------------------
% ion-electron   TOTEN  =       -24.015860  see above
  kinetic energy EKIN   =         0.011229
  kin. lattice  EKIN_LAT=         0.000000  (temperature   21.72 K)
  nose potential ES     =         0.000000
  nose kinetic   EPS    =         0.000000
  ---------------------------------------------------
  total energy   ETOTAL =       -24.004631 eV

  maximum distance moved by ions :      0.35E-03

    WAVPRE:  cpu time    0.0401: real time    0.0408
    FEWALD:  cpu time    0.0008: real time    0.0008
    ORTHCH:  cpu time    0.0081: real time    0.0082
 Prediction of Wavefunctions ALPHA= 2.188 BETA=-1.226
     LOOP+:  cpu time    1.5864: real time    1.6250


--------------------------------------- Iteration     10(   1)  ---------------------------------------


    POTLOK:  cpu time    0.1110: real time    0.1137
    SETDIJ:  cpu time    0.0017: real time    0.0017
     EDDAV:  cpu time    0.1735: real time    0.1769
       DOS:  cpu time    0.0002: real time    0.0002
    CHARGE:  cpu time    0.0150: real time    0.0153
    MIXING:  cpu time    0.0037: real time    0.0038
    --------------------------------------------
      LOOP:  cpu time    0.3052: real time    0.3117

 eigenvalue-minimisations  :    96
 total energy-change (2. order) : 0.5298830E-02  (-0.4632518E-04)
 number of electron       8.0000003 magnetization 
 augmentation part        0.1864953 magnetization 

 Broyden mixing:
  rms(total) = 0.24482E-03    rms(broyden)= 0.24440E-03
  rms(prec ) = 0.25600E-03
  weight for this iteration     100.00

 Free energy of the ion-electron system (eV)
  ---------------------------------------------------
  alpha Z        PSCENC =         0.23758649
  Ewald energy   TEWEN  =       130.59518248
  -Hartree energ DENC   =      -286.21804009
  -exchange      EXHF   =         0.00000000
  -V(xc)+E(xc)   XCENC  =        24.78921484
  PAW double counting   =       473.45785261     -474.24915402
  entropy T*S    EENTRO =        -0.00000000
  eigenvalues    EBANDS =       -89.66495705
  atomic energy  EATOM  =       197.04175453
  Solvation  Ediel_sol  =         0.00000000
  ---------------------------------------------------
  free energy    TOTEN  =       -24.01056020 eV

  energy without entropy =      -24.01056020  energy(sigma->0) =      -24.01056020


--------------------------------------------------------------------------------------------------------




--------------------------------------- Iteration     10(   2)  ---------------------------------------


    POTLOK:  cpu time    0.1102: real time    0.1125
    SETDIJ:  cpu time    0.0020: real time    0.0020
    EDDIAG:  cpu time    0.0329: real time    0.0336
  RMM-DIIS:  cpu time    0.1296: real time    0.1327
    ORTHCH:  cpu time    0.0022: real time    0.0022
       DOS:  cpu time    0.0002: real time    0.0002
    CHARGE:  cpu time    0.0154: real time    0.0157
    MIXING:  cpu time    0.0040: real time    0.0041
    --------------------------------------------
      LOOP:  cpu time    0.2965: real time    0.3030

 eigenvalue-minimisations  :    64
 total energy-change (2. order) :-0.8596380E-06  (-0.6839356E-06)
 number of electron       8.0000003 magnetization 
 augmentation part        0.1865000 magnetization 

 Broyden mixing:
  rms(total) = 0.99288E-04    rms(broyden)= 0.98891E-04
  rms(prec ) = 0.12170E-03
  weight for this iteration     100.00

 eigenvalues of (default mixing * dielectric matrix)
  average eigenvalue GAMMA=   0.7814
  0.7814

 Free energy of the ion-electron system (eV)
  ---------------------------------------------------
  alpha Z        PSCENC =         0.23758649
  Ewald energy   TEWEN  =       130.59518248
  -Hartree energ DENC   =      -286.21784370
  -exchange      EXHF   =         0.00000000
  -V(xc)+E(xc)   XCENC  =        24.78916821
  PAW double counting   =       473.50871155     -474.29997775
  entropy T*S    EENTRO =        -0.00000000
  eigenvalues    EBANDS =       -89.66514287
  atomic energy  EATOM  =       197.04175453
  Solvation  Ediel_sol  =         0.00000000
  ---------------------------------------------------
  free energy    TOTEN  =       -24.01056106 eV

  energy without entropy =      -24.01056106  energy(sigma->0) =      -24.01056106


--------------------------------------------------------------------------------------------------------




--------------------------------------- Iteration     10(   3)  ---------------------------------------


    POTLOK:  cpu time    0.1108: real time    0.1138
    SETDIJ:  cpu time    0.0018: real time    0.0018
    EDDIAG:  cpu time    0.0343: real time    0.0351
  RMM-DIIS:  cpu time    0.1051: real time    0.1080
    ORTHCH:  cpu time    0.0018: real time    0.0018
       DOS:  cpu time    0.0002: real time    0.0002
    CHARGE:  cpu time    0.0153: real time    0.0157
    MIXING:  cpu time    0.0040: real time    0.0041
    --------------------------------------------
      LOOP:  cpu time    0.2733: real time    0.2804

 eigenvalue-minimisations  :    48
 total energy-change (2. order) :-0.1394387E-06  (-0.1152296E-07)
 number of electron       8.0000003 magnetization 
 augmentation part        0.1865003 magnetization 

 Broyden mixing:
  rms(total) = 0.73092E-04    rms(broyden)= 0.73064E-04
  rms(prec ) = 0.88605E-04
  weight for this iteration     100.00

 eigenvalues of (default mixing * dielectric matrix)
  average eigenvalue GAMMA=   1.3897
  1.2516  1.5279

 Free energy of the ion-electron system (eV)
  ---------------------------------------------------
  alpha Z        PSCENC =         0.23758649
  Ewald energy   TEWEN  =       130.59518248
  -Hartree energ DENC   =      -286.21695249
  -exchange      EXHF   =         0.00000000
  -V(xc)+E(xc)   XCENC  =        24.78912676
  PAW double counting   =       473.49387273     -474.28512651
  entropy T*S    EENTRO =        -0.00000000
  eigenvalues    EBANDS =       -89.66600520
  atomic energy  EATOM  =       197.04175453
  Solvation  Ediel_sol  =         0.00000000
  ---------------------------------------------------
  free energy    TOTEN  =       -24.01056120 eV

  energy without entropy =      -24.01056120  energy(sigma->0) =      -24.01056120


--------------------------------------------------------------------------------------------------------




--------------------------------------- Iteration     10(   4)  ---------------------------------------


    POTLOK:  cpu time    0.1112: real time    0.1129
    SETDIJ:  cpu time    0.0020: real time    0.0021
    EDDIAG:  cpu time    0.0326: real time    0.0334
  RMM-DIIS:  cpu time    0.1046: real time    0.1068
    ORTHCH:  cpu time    0.0022: real time    0.0022
       DOS:  cpu time    0.0002: real time    0.0002
    --------------------------------------------
      LOOP:  cpu time    0.2527: real time    0.2574

 eigenvalue-minimisations  :    45
 total energy-change (2. order) :-0.2324185E-06  (-0.9557185E-08)
 number of electron       8.0000003 magnetization 
 augmentation part        0.1865003 magnetization 

 Free energy of the ion-electron system (eV)
  ---------------------------------------------------
  alpha Z        PSCENC =         0.23758649
  Ewald energy   TEWEN  =       130.59518248
  -Hartree energ DENC   =      -286.21551226
  -exchange      EXHF   =         0.00000000
  -V(xc)+E(xc)   XCENC  =        24.78906355
  PAW double counting   =       473.46025049     -474.25148469
  entropy T*S    EENTRO =        -0.00000000
  eigenvalues    EBANDS =       -89.66740203
  atomic energy  EATOM  =       197.04175453
  Solvation  Ediel_sol  =         0.00000000
  ---------------------------------------------------
  free energy    TOTEN  =       -24.01056143 eV

  energy without entropy =      -24.01056143  energy(sigma->0) =      -24.01056143


--------------------------------------------------------------------------------------------------------




 average (electrostatic) potential at core
  the test charge radii are     0.5201  0.6991
  (the norm of the test charge is              1.0000)
       1 -41.3923       2 -41.6571       3 -41.3877       4 -41.6653       5 -57.9396
 
 
 
 E-fermi :  -8.2468     XC(G=0):  -0.6800     alpha+bet : -0.2066


 k-point     1 :       0.2500    0.2500    0.2500
  band No.  band energies     occupation 
      1     -16.9192      2.00000
      2      -9.4016      2.00000
      3      -9.3175      2.00000
      4      -9.1954      2.00000
      5      -0.3062      0.00000
      6       0.5550      0.00000
      7       0.6663      0.00000
      8       0.6894      0.00000

 k-point     2 :      -0.2500    0.2500    0.2500
  band No.  band energies     occupation 
      1     -16.9192      2.00000
      2      -9.4017      2.00000
      3      -9.3175      2.00000
      4      -9.1953      2.00000
      5      -0.3065      0.00000
      6       0.5504      0.00000
      7       0.6586      0.00000
      8       0.6985      0.00000

 k-point     3 :       0.2500   -0.2500    0.2500
  band No.  band energies     occupation 
      1     -16.9192      2.00000
      2      -9.4016      2.00000
      3      -9.3176      2.00000
      4      -9.1953      2.00000
      5      -0.3131      0.00000
      6       0.5687      0.00000
      7       0.6712      0.00000
      8       0.7139      0.00000

 k-point     4 :      -0.2500   -0.2500    0.2500
  band No.  band energies     occupation 
      1     -16.9192      2.00000
      2      -9.4016      2.00000
      3      -9.3175      2.00000
      4      -9.1953      2.00000
      5      -0.3106      0.00000
      6       0.5625      0.00000
      7       0.6708      0.00000
      8       0.7066      0.00000


--------------------------------------------------------------------------------------------------------


 soft charge-density along one line, spin component           1
         0         1         2         3         4         5         6         7         8         9
 total charge-density along one line
 
 pseudopotential strength for first ion, spin component:           1
 -2.340  -4.032  -0.001  -0.001   0.001
 -4.032  -6.861  -0.003  -0.004   0.002
 -0.001  -0.003  -0.338   0.002  -0.001
 -0.001  -0.004   0.002  -0.337  -0.001
  0.001   0.002  -0.001  -0.001  -0.339
 total augmentation occupancy for first ion, spin component:           1
  3.500  -0.631   0.221   0.326  -0.132
 -0.631   0.127  -0.041  -0.060   0.025
  0.221  -0.041   0.020   0.017  -0.007
  0.326  -0.060   0.017   0.034  -0.010
 -0.132   0.025  -0.007  -0.010   0.013


------------------------ aborting loop because EDIFF is reached ----------------------------------------


    CHARGE:  cpu time    0.0151: real time    0.0154
    FORLOC:  cpu time    0.0101: real time    0.0102
    FORNL :  cpu time    0.0177: real time    0.0179
    STRESS:  cpu time    0.1387: real time    0.1400
    FORCOR:  cpu time    0.1118: real time    0.1151
    FORHAR:  cpu time    0.0371: real time    0.0376
    MIXING:  cpu time    0.0046: real time    0.0047
    OFIELD:  cpu time    0.0000: real time    0.0000

  FORCE on cell =-STRESS in cart. coord.  units (eV):
  Direction    XX          YY          ZZ          XY          YZ          ZX
  --------------------------------------------------------------------------------------
  Alpha Z     0.23759     0.23759     0.23759
  Ewald      43.14985    45.25029    42.19501    -0.34397    -1.42019     0.49346
  Hartree    94.32206    98.22873    93.66510     0.03696    -0.26571    -0.03739
  E(xc)     -27.26489   -27.26098   -27.26018     0.00262     0.00087    -0.00203
  Local    -195.83246  -202.65009  -194.41576     0.11403     1.23072    -0.21548
  n-local   -16.05177   -15.95262   -16.00872     0.02878     0.04592    -0.03046
  augment     0.10989     0.11853     0.11246     0.00218     0.00463    -0.00262
  Kinetic   101.60956   101.39176   101.35526    -0.13292    -0.04280     0.10195
  Fock        0.00000     0.00000     0.00000     0.00000     0.00000     0.00000
  -------------------------------------------------------------------------------------
  Total       0.27983    -0.63678    -0.11924    -0.29231    -0.44656     0.30742
  in kB       0.43970    -1.00060    -0.18736    -0.45932    -0.70170     0.48306
  external pressure =       -0.25 kB  Pullay stress =        0.00 kB

  kinetic pressure (ideal gas correction) =      0.01 kB
  total pressure  =     -0.24 kB
  Total+kin.     0.448      -0.992      -0.177      -0.460      -0.702       0.484

 VOLUME and BASIS-vectors are now :
 -----------------------------------------------------------------------------
  energy-cutoff  :      400.00
  volume of cell :     1019.63
      direct lattice vectors                 reciprocal lattice vectors
    10.139193443  0.000000000  0.000000000     0.098627174  0.000558510 -0.000475254
    -0.055765756  9.847660359  0.000000000     0.000000000  0.101546963  0.002657716
     0.050721563 -0.267269064 10.211910342     0.000000000  0.000000000  0.097924871

  length of vectors
    10.139193443  9.847818254 10.215533186     0.098629901  0.101581736  0.097924871


 FORCES acting on ions
    electron-ion (+dipol)            ewald-force                    non-local-force                 convergence-correction
 -----------------------------------------------------------------------------------------------
   -.167E+02 0.280E+02 0.411E+02   0.183E+02 -.306E+02 -.449E+02   -.169E+01 0.283E+01 0.417E+01   0.295E-04 -.244E-04 -.476E-04
   0.534E+02 -.642E+01 0.340E+01   -.598E+02 0.721E+01 -.382E+01   0.576E+01 -.694E+00 0.375E+00   -.465E-04 0.126E-04 -.116E-04
   -.233E+02 -.468E+02 0.940E+00   0.255E+02 0.512E+02 -.102E+01   -.236E+01 -.475E+01 0.107E+00   0.316E-04 0.451E-04 -.117E-04
   -.124E+02 0.255E+02 -.458E+02   0.139E+02 -.286E+02 0.513E+02   -.133E+01 0.275E+01 -.494E+01   0.273E-04 -.254E-04 0.382E-04
   -.166E+01 -.551E+00 0.112E+01   0.209E+01 0.740E+00 -.152E+01   0.358E+00 0.217E+00 -.463E+00   0.492E-04 0.241E-04 -.432E-04
 -----------------------------------------------------------------------------------------------
   -.726E+00 -.355E+00 0.753E+00   0.000E+00 0.355E-14 -.142E-13   0.726E+00 0.355E+00 -.753E+00   0.912E-04 0.320E-04 -.759E-04
 
 
 POSITION                                       TOTAL-FORCE (eV/Angst)
 -----------------------------------------------------------------------------------
      5.45411      3.88954      3.68241        -0.100306      0.169050      0.302038
      4.03503      4.60962      4.48282        -0.698355      0.097980     -0.044878
      5.59542      5.47432      4.53075        -0.170002     -0.340866      0.027455
      5.34888      3.97114      5.46637         0.188791     -0.333664      0.578577
      5.10128      4.48100      4.55158         0.780209      0.407100     -0.863254
 -----------------------------------------------------------------------------------
    total drift:                                0.000337     -0.000400     -0.000063


--------------------------------------------------------------------------------------------------------



  FREE ENERGIE OF THE ION-ELECTRON SYSTEM (eV)
  ---------------------------------------------------
  free  energy   TOTEN  =       -24.01056143 eV

  energy  without entropy=      -24.01056143  energy(sigma->0) =      -24.01056143
 
 d Force =-0.5300726E-02[-0.586E-02,-0.474E-02]  d Energy =-0.5298507E-02-0.222E-05
 d Force =-0.2275807E+00[-0.229E+00,-0.226E+00]  d Ewald  =-0.2275790E+00-0.169E-05


--------------------------------------------------------------------------------------------------------


    POTLOK:  cpu time    0.1145: real time    0.1166


--------------------------------------------------------------------------------------------------------


 stress matrix after NEB project (eV)
      0.27983     -0.29231      0.30742
     -0.29231     -0.63678     -0.44656
      0.30742     -0.44656     -0.11924
  FORCES: max atom, RMS     1.232747    0.745173
  FORCE total and by dimension    1.666258    0.863254
  Stress total and by dimension    1.121056    0.636783
           RANDOM_SEED =         581394395               30                0
   IONSTEP:  cpu time    0.0001: real time    0.0001

  ENERGY OF THE ELECTRON-ION-THERMOSTAT SYSTEM (eV)
  ---------------------------------------------------
% ion-electron   TOTEN  =       -24.010561  see above
  kinetic energy EKIN   =         0.006053
  kin. lattice  EKIN_LAT=         0.000000  (temperature   11.71 K)
  nose potential ES     =         0.000000
  nose kinetic   EPS    =         0.000000
  ---------------------------------------------------
  total energy   ETOTAL =       -24.004508 eV

  maximum distance moved by ions :      0.28E-03


 mean value of Nose-termostat <S>:     1.000 mean value of <T> :    24.926
 mean temperature <T/S>/<1/S>  :    24.926

    WAVPRE:  cpu time    0.0432: real time    0.0439
    FEWALD:  cpu time    0.0009: real time    0.0009
    ORTHCH:  cpu time    0.0079: real time    0.0080
 Prediction of Wavefunctions ALPHA= 2.111 BETA=-1.139
    POTLOK:  cpu time    0.1135: real time    0.1164
    EDDIAG:  cpu time    0.0332: real time    0.0339
     LOOP+:  cpu time    1.7809: real time    1.8181
    4ORBIT:  cpu time    0.0000: real time    0.0007

 total amount of memory used by VASP MPI-rank0    54758. kBytes
=======================================================================

   base      :      30000. kBytes
   nonl-proj :       2749. kBytes
   fftplans  :       7848. kBytes
   grid      :      12367. kBytes
   one-center:          6. kBytes
   wavefun   :       1788. kBytes
 
  
  
 General timing and accounting informations for this job:
 ========================================================
  
                  Total CPU time used (sec):       24.141
                            User time (sec):       22.558
                          System time (sec):        1.583
                         Elapsed time (sec):       25.007
  
                   Maximum memory used (kb):      178716.
                   Average memory used (kb):           0.
  
                          Minor page faults:       209443
                          Major page faults:          190
                 Voluntary context switches:          598
