unknown system                          
           1
    10.139193    0.000000    0.000000
    -0.055766    9.847660    0.000000
     0.050722   -0.267269   10.211910
   H    C 
   4   1
Direct configuration=     1
   0.53776082  0.40721785  0.36138650
   0.39439711  0.48011697  0.43846204
   0.55234308  0.56557898  0.44261278
   0.52760168  0.41620563  0.53902266
   0.50384574  0.46724287  0.44546816
Direct configuration=     2
   0.53778765  0.40713014  0.36133504
   0.39456265  0.48010549  0.43848025
   0.55237257  0.56567994  0.44264014
   0.52757549  0.41627501  0.53887398
   0.50382945  0.46723694  0.44548103
Direct configuration=     3
   0.53783838  0.40696079  0.36123805
   0.39488156  0.48008478  0.43851550
   0.55242744  0.56587353  0.44269446
   0.52752550  0.41640851  0.53858704
   0.50379827  0.46722553  0.44550554
Direct configuration=     4
   0.53790835  0.40672091  0.36110761
   0.39533019  0.48005745  0.43856576
   0.55250069  0.56614287  0.44277458
   0.52745688  0.41659542  0.53818226
   0.50375471  0.46720980  0.44553924
Direct configuration=     5
   0.53799131  0.40642556  0.36095978
   0.39587422  0.48002724  0.43862807
   0.55258300  0.56646528  0.44287883
   0.52737720  0.41682020  0.53768926
   0.50370229  0.46719134  0.44557873
Direct configuration=     6
   0.53807995  0.40609271  0.36081326
   0.39647089  0.47999885  0.43869873
   0.55266359  0.56681407  0.44300502
   0.52729586  0.41706350  0.53714493
   0.50364530  0.46717212  0.44561986
Direct configuration=     7
   0.53816658  0.40574153  0.36068738
   0.39707165  0.47997753  0.43877351
   0.55273141  0.56716126  0.44315057
   0.52722351  0.41730347  0.53659107
   0.50358844  0.46715425  0.44565811
Direct configuration=     8
   0.53824384  0.40539094  0.36060022
   0.39762582  0.47996870  0.43884800
   0.55277614  0.56747995  0.44331255
   0.52717109  0.41751742  0.53607123
   0.50353651  0.46713983  0.44568896
Direct configuration=     9
   0.53830532  0.40505820  0.36056707
   0.39808496  0.47997735  0.43891798
   0.55278923  0.56774654  0.44348779
   0.52714884  0.41768388  0.53562702
   0.50349393  0.46713076  0.44570828
Direct configuration=    10
   0.53834601  0.40475787  0.36059913
   0.39840784  0.48000741  0.43897991
   0.55276453  0.56794226  0.44367295
   0.52716508  0.41778483  0.53529386
   0.50346437  0.46712856  0.44571278
