    5    5   10    1
  0.2028769E+03  0.9987600E-09  0.1008377E-08  0.1007757E-08  0.5000000E-15
  1.000000000000000E-004
  CAR 
 unknown system                          
      8      4      8
 
  0.2500000E+00  0.2500000E+00  0.2500000E+00  0.2500000E+00
    1      -16.946024   1.000000
    2       -9.385551   1.000000
    3       -9.314553   1.000000
    4       -9.256981   1.000000
    5       -0.301823   0.000000
    6        0.546551   0.000000
    7        0.671552   0.000000
    8        0.694180   0.000000
 
 -0.2500000E+00  0.2500000E+00  0.2500000E+00  0.2500000E+00
    1      -16.946028   1.000000
    2       -9.385549   1.000000
    3       -9.314525   1.000000
    4       -9.257030   1.000000
    5       -0.299776   0.000000
    6        0.531241   0.000000
    7        0.668573   0.000000
    8        0.696591   0.000000
 
  0.2500000E+00 -0.2500000E+00  0.2500000E+00  0.2500000E+00
    1      -16.946032   1.000000
    2       -9.385589   1.000000
    3       -9.314560   1.000000
    4       -9.257084   1.000000
    5       -0.302640   0.000000
    6        0.542371   0.000000
    7        0.674091   0.000000
    8        0.699518   0.000000
 
 -0.2500000E+00 -0.2500000E+00  0.2500000E+00  0.2500000E+00
    1      -16.945978   1.000000
    2       -9.385467   1.000000
    3       -9.314538   1.000000
    4       -9.256877   1.000000
    5       -0.308981   0.000000
    6        0.565028   0.000000
    7        0.686334   0.000000
    8        0.708629   0.000000
