 running on   16 total cores
 distrk:  each k-point on   16 cores,    1 groups
 distr:  one band on    4 cores,    4 groups
 using from now: INCAR     
 vasp.5.4.4.18Apr17-6-g9f103f2a35 (build Nov 25 2021 15:25:00) complex          
  
 POSCAR found type information on POSCAR  H  C 
 POSCAR found :  2 types and       5 ions
 scaLAPACK will be used
 LDA part: xc-table for Pade appr. of Perdew
 POSCAR found type information on POSCAR  H  C 
 POSCAR found :  2 types and       5 ions
 generate k-points for:    2    2    2
 POSCAR, INCAR and KPOINTS ok, starting setup
 FFT: planning ...
 WAVECAR not read
 prediction of wavefunctions initialized - no I/O
 entering main loop
       N       E                     dE             d eps       ncg     rms          rms(c)
DAV:   1     0.153403036055E+02    0.15340E+02   -0.19736E+03    96   0.416E+02
DAV:   2    -0.222277369462E+02   -0.37568E+02   -0.37568E+02    64   0.113E+02
DAV:   3    -0.272094416278E+02   -0.49817E+01   -0.49817E+01    64   0.468E+01
DAV:   4    -0.274251639986E+02   -0.21572E+00   -0.21572E+00   128   0.108E+01
DAV:   5    -0.274252519175E+02   -0.87919E-04   -0.87919E-04    80   0.247E-01    0.856E+00
RMM:   6    -0.246328489105E+02    0.27924E+01   -0.51496E+00    64   0.138E+01    0.423E+00
RMM:   7    -0.241585076140E+02    0.47434E+00   -0.11303E+00    64   0.613E+00    0.225E+00
RMM:   8    -0.240137116610E+02    0.14480E+00   -0.16234E-01    64   0.287E+00    0.228E-01
RMM:   9    -0.240081310840E+02    0.55806E-02   -0.10876E-02    64   0.690E-01    0.194E-01
RMM:  10    -0.240018861912E+02    0.62449E-02   -0.24402E-02    64   0.848E-01    0.273E-01
RMM:  11    -0.240027560852E+02   -0.86989E-03   -0.88093E-03    64   0.580E-01    0.925E-02
RMM:  12    -0.240120810832E+02   -0.93250E-02   -0.30149E-03    64   0.336E-01    0.119E-01
RMM:  13    -0.240126682513E+02   -0.58717E-03   -0.99650E-04    64   0.173E-01    0.446E-02
RMM:  14    -0.240154870943E+02   -0.28188E-02   -0.12582E-03    64   0.217E-01    0.300E-02
RMM:  15    -0.240157154942E+02   -0.22840E-03   -0.36311E-05    64   0.386E-02    0.185E-02
RMM:  16    -0.240159175580E+02   -0.20206E-03   -0.13125E-04    64   0.666E-02    0.843E-03
RMM:  17    -0.240159489713E+02   -0.31413E-04   -0.23049E-05    64   0.276E-02    0.280E-03
RMM:  18    -0.240159605552E+02   -0.11584E-04   -0.10658E-06    48   0.709E-03    0.700E-04
RMM:  19    -0.240159639529E+02   -0.33977E-05   -0.97380E-07    48   0.592E-03    0.876E-04
RMM:  20    -0.240159649291E+02   -0.97623E-06   -0.17011E-07    48   0.284E-03
    1 T=     0. E= -.24015734E+02 F= -.24015965E+02 E0= -.24015965E+02  EK= 0.23095E-03 SP= 0.00E+00 SK= 0.00E+00
 bond charge predicted
       N       E                     dE             d eps       ncg     rms          rms(c)
DAV:   1    -0.240177395401E+02   -0.17756E-02   -0.19658E-03    80   0.418E-01    0.214E-02
RMM:   2    -0.240177317471E+02    0.77930E-05   -0.50599E-05    64   0.576E-02    0.112E-02
RMM:   3    -0.240177312336E+02    0.51344E-06   -0.18099E-05    64   0.275E-02    0.395E-03
RMM:   4    -0.240177310599E+02    0.17369E-06   -0.52823E-07    48   0.618E-03
    2 T=     4. E= -.24015767E+02 F= -.24017731E+02 E0= -.24017731E+02  EK= 0.19643E-02 SP= 0.00E+00 SK= 0.00E+00
 bond charge predicted
 prediction of wavefunctions
       N       E                     dE             d eps       ncg     rms          rms(c)
DAV:   1    -0.240207523470E+02   -0.30211E-02   -0.15864E-03    88   0.390E-01    0.684E-03
RMM:   2    -0.240207566241E+02   -0.42771E-05   -0.48069E-05    64   0.643E-02    0.283E-03
RMM:   3    -0.240207570336E+02   -0.40949E-06   -0.17610E-06    52   0.119E-02    0.228E-03
RMM:   4    -0.240207573431E+02   -0.30957E-06   -0.51800E-07    48   0.652E-03
    3 T=    10. E= -.24015822E+02 F= -.24020757E+02 E0= -.24020757E+02  EK= 0.49352E-02 SP= 0.00E+00 SK= 0.00E+00
 bond charge predicted
 prediction of wavefunctions
       N       E                     dE             d eps       ncg     rms          rms(c)
DAV:   1    -0.240241845321E+02   -0.34275E-02   -0.50156E-04    80   0.185E-01    0.113E-02
RMM:   2    -0.240241814745E+02    0.30576E-05   -0.25471E-05    64   0.430E-02    0.543E-03
RMM:   3    -0.240241818061E+02   -0.33161E-06   -0.12369E-05    64   0.212E-02    0.189E-03
RMM:   4    -0.240241819358E+02   -0.12968E-06   -0.43195E-07    48   0.517E-03
    4 T=    16. E= -.24015885E+02 F= -.24024182E+02 E0= -.24024182E+02  EK= 0.82966E-02 SP= 0.00E+00 SK= 0.00E+00
 bond charge predicted
 prediction of wavefunctions
       N       E                     dE             d eps       ncg     rms          rms(c)
DAV:   1    -0.240269971182E+02   -0.28153E-02   -0.65529E-04    64   0.212E-01    0.394E-03
RMM:   2    -0.240269993402E+02   -0.22220E-05   -0.47103E-06    64   0.192E-02    0.181E-03
RMM:   3    -0.240270015695E+02   -0.22293E-05   -0.73483E-07    48   0.651E-03    0.546E-04
RMM:   4    -0.240270028970E+02   -0.13275E-05   -0.11135E-07    48   0.280E-03    0.350E-04
RMM:   5    -0.240270057862E+02   -0.28892E-05   -0.27945E-07    48   0.285E-03    0.387E-04
RMM:   6    -0.240270061500E+02   -0.36380E-06   -0.23986E-08    36   0.148E-03
    5 T=    21. E= -.24015939E+02 F= -.24027006E+02 E0= -.24027006E+02  EK= 0.11067E-01 SP= 0.00E+00 SK= 0.00E+00
 bond charge predicted
 prediction of wavefunctions
       N       E                     dE             d eps       ncg     rms          rms(c)
DAV:   1    -0.240283895312E+02   -0.13837E-02   -0.84596E-04    64   0.239E-01    0.856E-03
RMM:   2    -0.240283902874E+02   -0.75614E-06   -0.12318E-05    64   0.289E-02    0.516E-03
RMM:   3    -0.240283930173E+02   -0.27300E-05   -0.12258E-05    64   0.205E-02    0.272E-03
RMM:   4    -0.240283928085E+02    0.20889E-06   -0.65706E-07    48   0.584E-03
    6 T=    24. E= -.24015970E+02 F= -.24028393E+02 E0= -.24028393E+02  EK= 0.12423E-01 SP= 0.00E+00 SK= 0.00E+00
 bond charge predicted
 prediction of wavefunctions
       N       E                     dE             d eps       ncg     rms          rms(c)
DAV:   1    -0.240279293804E+02    0.46364E-03   -0.77108E-04    64   0.242E-01    0.103E-03
RMM:   2    -0.240279324398E+02   -0.30594E-05   -0.58048E-06    60   0.222E-02    0.883E-04
RMM:   3    -0.240279340745E+02   -0.16347E-05   -0.22188E-07    48   0.458E-03    0.754E-04
RMM:   4    -0.240279389087E+02   -0.48341E-05   -0.28524E-07    48   0.355E-03    0.288E-04
RMM:   5    -0.240279398681E+02   -0.95940E-06   -0.70844E-09    36   0.174E-03
    7 T=    23. E= -.24015965E+02 F= -.24027940E+02 E0= -.24027940E+02  EK= 0.11975E-01 SP= 0.00E+00 SK= 0.00E+00
 bond charge predicted
 prediction of wavefunctions
       N       E                     dE             d eps       ncg     rms          rms(c)
DAV:   1    -0.240258117104E+02    0.21272E-02   -0.64532E-04    72   0.229E-01    0.576E-03
RMM:   2    -0.240258168867E+02   -0.51763E-05   -0.10640E-05    64   0.347E-02    0.329E-03
RMM:   3    -0.240258228858E+02   -0.59991E-05   -0.32148E-06    60   0.110E-02    0.717E-04
RMM:   4    -0.240258250945E+02   -0.22087E-05   -0.13612E-07    48   0.319E-03    0.477E-04
RMM:   5    -0.240258310161E+02   -0.59216E-05   -0.33613E-07    48   0.337E-03    0.628E-04
RMM:   6    -0.240258331987E+02   -0.21826E-05   -0.23469E-07    48   0.262E-03    0.207E-04
RMM:   7    -0.240258336007E+02   -0.40204E-06   -0.56253E-08    44   0.172E-03
    8 T=    19. E= -.24015922E+02 F= -.24025834E+02 E0= -.24025834E+02  EK= 0.99116E-02 SP= 0.00E+00 SK= 0.00E+00
 bond charge predicted
 prediction of wavefunctions
       N       E                     dE             d eps       ncg     rms          rms(c)
DAV:   1    -0.240228113802E+02    0.30218E-02   -0.46041E-04    64   0.193E-01    0.193E-03
RMM:   2    -0.240228139582E+02   -0.25780E-05   -0.70833E-06    62   0.256E-02    0.117E-03
RMM:   3    -0.240228153738E+02   -0.14156E-05   -0.22396E-07    48   0.447E-03    0.823E-04
RMM:   4    -0.240228177553E+02   -0.23815E-05   -0.14637E-07    48   0.291E-03    0.254E-04
RMM:   5    -0.240228185972E+02   -0.84197E-06   -0.43767E-09    34   0.130E-03
    9 T=    13. E= -.24015853E+02 F= -.24022819E+02 E0= -.24022819E+02  EK= 0.69657E-02 SP= 0.00E+00 SK= 0.00E+00
 bond charge predicted
 prediction of wavefunctions
       N       E                     dE             d eps       ncg     rms          rms(c)
DAV:   1    -0.240199862286E+02    0.28315E-02   -0.23389E-04    64   0.148E-01    0.155E-03
RMM:   2    -0.240199873138E+02   -0.10852E-05   -0.51905E-06    64   0.251E-02    0.670E-04
RMM:   3    -0.240199876608E+02   -0.34700E-06   -0.91364E-08    48   0.297E-03    0.551E-04
RMM:   4    -0.240199883320E+02   -0.67116E-06   -0.89334E-09    36   0.150E-03
   10 T=     8. E= -.24015789E+02 F= -.24019988E+02 E0= -.24019988E+02  EK= 0.41993E-02 SP= 0.00E+00 SK= 0.00E+00
 bond charge predicted
 prediction of wavefunctions
 wavefunctions rotated
