 vasp.5.4.4.18Apr17-6-g9f103f2a35 (build Nov 25 2021 15:25:00) complex          
  
 executed on             LinuxIFC date 2022.02.21  10:17:19
 running on   16 total cores
 distrk:  each k-point on   16 cores,    1 groups
 distr:  one band on NCORES_PER_BAND=   4 cores,    4 groups


--------------------------------------------------------------------------------------------------------


 INCAR:
 POTCAR:    PAW_PBE H 15Jun2001                   
 POTCAR:    PAW_PBE C 08Apr2002                   
 POTCAR:    PAW_PBE H 15Jun2001                   
   VRHFIN =H: ultrasoft test                                                    
   LEXCH  = PE                                                                  
   EATOM  =    12.4884 eV,    0.9179 Ry                                         
                                                                                
   TITEL  = PAW_PBE H 15Jun2001                                                 
   LULTRA =        F    use ultrasoft PP ?                                      
   IUNSCR =        0    unscreen: 0-lin 1-nonlin 2-no                           
   RPACOR =    0.000    partial core radius                                     
   POMASS =    1.000; ZVAL   =    1.000    mass and valenz                      
   RCORE  =    1.100    outmost cutoff radius                                   
   RWIGS  =    0.700; RWIGS  =    0.370    wigner-seitz radius (au A)           
   ENMAX  =  250.000; ENMIN  =  200.000 eV                                      
   RCLOC  =    0.701    cutoff for local pot                                    
   LCOR   =        T    correct aug charges                                     
   LPAW   =        T    paw PP                                                  
   EAUG   =  400.000                                                            
   RMAX   =    1.123    core radius for proj-oper                               
   RAUG   =    1.200    factor for augmentation sphere                          
   RDEP   =    1.112    radius for radial grids                                 
   RDEPT  =    0.926    core radius for aug-charge                              
                                                                                
   Atomic configuration                                                         
    2 entries                                                                   
     n  l   j            E        occ.                                          
     1  0  0.50        -6.4927   1.0000                                         
     2  1  0.50        -3.4015   0.0000                                         
   Description                                                                  
     l       E           TYP  RCUT    TYP  RCUT                                 
     0     -6.4927494     23  1.100                                             
     0      6.8029130     23  1.100                                             
     1     -4.0817478     23  1.100                                             
  local pseudopotential read in
  atomic valenz-charges read in
  non local Contribution for L=           0  read in
    real space projection operators read in
  non local Contribution for L=           0  read in
    real space projection operators read in
  non local Contribution for L=           1  read in
    real space projection operators read in
    PAW grid and wavefunctions read in
 
   number of l-projection  operators is LMAX  =           3
   number of lm-projection operators is LMMAX =           5
 
 POTCAR:    PAW_PBE C 08Apr2002                   
   VRHFIN =C: s2p2                                                              
   LEXCH  = PE                                                                  
   EATOM  =   147.1560 eV,   10.8157 Ry                                         
                                                                                
   TITEL  = PAW_PBE C 08Apr2002                                                 
   LULTRA =        F    use ultrasoft PP ?                                      
   IUNSCR =        1    unscreen: 0-lin 1-nonlin 2-no                           
   RPACOR =    1.200    partial core radius                                     
   POMASS =   12.011; ZVAL   =    4.000    mass and valenz                      
   RCORE  =    1.500    outmost cutoff radius                                   
   RWIGS  =    1.630; RWIGS  =    0.863    wigner-seitz radius (au A)           
   ENMAX  =  400.000; ENMIN  =  300.000 eV                                      
   ICORE  =        2    local potential                                         
   LCOR   =        T    correct aug charges                                     
   LPAW   =        T    paw PP                                                  
   EAUG   =  644.873                                                            
   DEXC   =    0.000                                                            
   RMAX   =    1.529    core radius for proj-oper                               
   RAUG   =    1.300    factor for augmentation sphere                          
   RDEP   =    1.501    radius for radial grids                                 
   RDEPT  =    1.300    core radius for aug-charge                              
                                                                                
   Atomic configuration                                                         
    4 entries                                                                   
     n  l   j            E        occ.                                          
     1  0  0.50      -273.3789   2.0000                                         
     2  0  0.50       -13.7508   2.0000                                         
     2  1  0.50        -5.2854   2.0000                                         
     3  2  1.50        -5.4423   0.0000                                         
   Description                                                                  
     l       E           TYP  RCUT    TYP  RCUT                                 
     0    -13.7508458     23  1.200                                             
     0     -8.2022199     23  1.200                                             
     1     -5.2854383     23  1.500                                             
     1     34.0145650     23  1.500                                             
     2     -5.4423304      7  1.500                                             
  local pseudopotential read in
  partial core-charges read in
  partial kinetic energy density read in
  atomic valenz-charges read in
  non local Contribution for L=           0  read in
    real space projection operators read in
  non local Contribution for L=           0  read in
    real space projection operators read in
  non local Contribution for L=           1  read in
    real space projection operators read in
  non local Contribution for L=           1  read in
    real space projection operators read in
    PAW grid and wavefunctions read in
 
   number of l-projection  operators is LMAX  =           4
   number of lm-projection operators is LMMAX =           8
 
  PAW_PBE H 15Jun2001                   :
 energy of atom  1       EATOM=  -12.4884
 kinetic energy error for atom=    0.0098 (will be added to EATOM!!)
  PAW_PBE C 08Apr2002                   :
 energy of atom  2       EATOM= -147.1560
 kinetic energy error for atom=    0.0288 (will be added to EATOM!!)
 
 
 POSCAR:  H  C                                   
  positions in cartesian coordinates
  No initial velocities read in
 exchange correlation table for  LEXCH =        8
   RHO(1)=    0.500       N(1)  =     2000
   RHO(2)=  100.500       N(2)  =     4000

 VTST: version 3.2, (02/03/18)

 CHAIN: initializing optimizer
 
 OPT: Using VASP Dynamics algorithm
 CHAIN: Read ICHAIN            0
 
 POSCAR:  H  C                                   
  positions in cartesian coordinates
  No initial velocities read in
 


--------------------------------------------------------------------------------------------------------


 ion  position               nearest neighbor table
   1  0.538  0.406  0.360-   5 1.10
   2  0.394  0.480  0.439-   5 1.09
   3  0.552  0.566  0.443-   5 1.12
   4  0.528  0.416  0.539-   5 1.11
   5  0.503  0.467  0.445-   2 1.09   1 1.10   4 1.11   3 1.12
 

IMPORTANT INFORMATION: All symmetrisations will be switched off!
NOSYMM: (Re-)initialisation of all symmetry stuff for point group C_1.

 
 

Automatic generation of k-mesh.
 generate k-points for:    2    2    2
Space group operators:
 irot       det(A)        alpha          n_x          n_y          n_z        tau_x        tau_y        tau_z
    1     1.000000     0.000000     1.000000     0.000000     0.000000     0.000000     0.000000     0.000000
 
 Subroutine IBZKPT returns following result:
 ===========================================
 
 Found      4 irreducible k-points:
 
 Following reciprocal coordinates:
            Coordinates               Weight
  0.250000  0.250000  0.250000      2.000000
 -0.250000  0.250000  0.250000      2.000000
  0.250000 -0.250000  0.250000      2.000000
 -0.250000 -0.250000  0.250000      2.000000
 
 Following cartesian coordinates:
            Coordinates               Weight
  0.025031  0.024312  0.025689      2.000000
 -0.025031  0.025282  0.025149      2.000000
  0.025031 -0.025282  0.024484      2.000000
 -0.025031 -0.024312  0.023944      2.000000
 


--------------------------------------------------------------------------------------------------------




 Dimension of arrays:
   k-points           NKPTS =      4   k-points in BZ     NKDIM =      4   number of bands    NBANDS=      8
   number of dos      NEDOS =    301   number of ions     NIONS =      5
   non local maximal  LDIM  =      4   non local SUM 2l+1 LMDIM =      8
   total plane-waves  NPLWV = 343000
   max r-space proj   IRMAX =      1   max aug-charges    IRDMAX=   4189
   dimension x,y,z NGX =    70 NGY =   70 NGZ =   70
   dimension x,y,z NGXF=   140 NGYF=  140 NGZF=  140
   support grid    NGXF=   140 NGYF=  140 NGZF=  140
   ions per type =               4   1
   NGX,Y,Z   is equivalent  to a cutoff of  11.65, 11.54, 11.55 a.u.
   NGXF,Y,Z  is equivalent  to a cutoff of  23.30, 23.08, 23.10 a.u.

 SYSTEM =  unknown system                          
 POSCAR =   H  C                                   

 Startparameter for this run:
   NWRITE =      2    write-flag & timer
   PREC   = a         normal or accurate (medium, high low for compatibility)
   ISTART =      0    job   : 0-new  1-cont  2-samecut
   ICHARG =      2    charge: 1-file 2-atom 10-const
   ISPIN  =      1    spin polarized calculation?
   LNONCOLLINEAR =      F non collinear calculations
   LSORBIT =      F    spin-orbit coupling
   INIWAV =      1    electr: 0-lowe 1-rand  2-diag
   LASPH  =      F    aspherical Exc in radial PAW
   METAGGA=      F    non-selfconsistent MetaGGA calc.

 Electronic Relaxation 1
   ENCUT  =  400.0 eV  29.40 Ry    5.42 a.u.  16.29 16.44 16.43*2*pi/ulx,y,z
   ENINI  =  400.0     initial cutoff
   ENAUG  =  644.9 eV  augmentation charge cutoff
   NELM   =    120;   NELMIN=  4; NELMDL= -5     # of ELM steps 
   EDIFF  = 0.1E-05   stopping-criterion for ELM
   LREAL  =      F    real-space projection
   NLSPLINE    = F    spline interpolate recip. space projectors
   LCOMPAT=      F    compatible to vasp.4.4
   GGA_COMPAT  = T    GGA compatible to vasp.4.4-vasp.4.6
   LMAXPAW     = -100 max onsite density
   LMAXMIX     =    2 max onsite mixed and CHGCAR
   VOSKOWN=      0    Vosko Wilk Nusair interpolation
   ROPT   =    0.00000   0.00000
 Ionic relaxation
   EDIFFG = 0.1E-04   stopping-criterion for IOM
   NSW    =     10    number of steps for IOM
   NBLOCK =      1;   KBLOCK =     10    inner block; outer block 
   IBRION =      0    ionic relax: 0-MD 1-quasi-New 2-CG
   NFREE  =      0    steps in history (QN), initial steepest desc. (CG)
   ISIF   =      2    stress and relaxation
   IWAVPR =     12    prediction:  0-non 1-charg 2-wave 3-comb
   ISYM   =      0    0-nonsym 1-usesym 2-fastsym
   LCORR  =      T    Harris-Foulkes like correction to forces

   POTIM  = 0.5000    time-step for ionic-motion
   TEIN   =    0.0    initial temperature
   TEBEG  =    0.0;   TEEND  =   0.0 temperature during run
   SMASS  =  -3.00    Nose mass-parameter (am)
   estimated Nose-frequenzy (Omega)   =  0.10E-29 period in steps =****** mass=  -0.228E-26a.u.
   SCALEE = 1.0000    scale energy and forces
   NPACO  =    256;   APACO  = 16.0  distance and # of slots for P.C.
   PSTRESS=    0.0 pullay stress

  Mass of Ions in am
   POMASS =   1.00 12.01
  Ionic Valenz
   ZVAL   =   1.00  4.00
  Atomic Wigner-Seitz radii
   RWIGS  =  -1.00 -1.00
  virtual crystal weights 
   VCA    =   1.00  1.00
   NELECT =       8.0000    total number of electrons
   NUPDOWN=      -1.0000    fix difference up-down

 DOS related values:
   EMIN   =  10.00;   EMAX   =-10.00  energy-range for DOS
   EFERMI =   0.00
   ISMEAR =     0;   SIGMA  =   0.20  broadening in eV -4-tet -1-fermi 0-gaus

 Electronic relaxation 2 (details)
   IALGO  =     68    algorithm
   LDIAG  =      T    sub-space diagonalisation (order eigenvalues)
   LSUBROT=      F    optimize rotation matrix (better conditioning)
   TURBO    =      0    0=normal 1=particle mesh
   IRESTART =      0    0=no restart 2=restart with 2 vectors
   NREBOOT  =      0    no. of reboots
   NMIN     =      0    reboot dimension
   EREF     =   0.00    reference energy to select bands
   IMIX   =      4    mixing-type and parameters
     AMIX     =   0.40;   BMIX     =  1.00
     AMIX_MAG =   1.60;   BMIX_MAG =  1.00
     AMIN     =   0.10
     WC   =   100.;   INIMIX=   1;  MIXPRE=   1;  MAXMIX= -45

 Intra band minimization:
   WEIMIN = 0.0010     energy-eigenvalue tresh-hold
   EBREAK =  0.31E-07  absolut break condition
   DEPER  =   0.30     relativ break condition  

   TIME   =   0.40     timestep for ELM

  volume/ion in A,a.u.               =     202.88      1369.08
  Fermi-wavevector in a.u.,A,eV,Ry     =   0.325865  0.615795  1.444773  0.106188
  Thomas-Fermi vector in A             =   1.217230
 
 Write flags
   LWAVE        =      F    write WAVECAR
   LDOWNSAMPLE  =      F    k-point downsampling of WAVECAR
   LCHARG       =      F    write CHGCAR
   LVTOT        =      F    write LOCPOT, total local potential
   LVHAR        =      F    write LOCPOT, Hartree potential only
   LELF         =      F    write electronic localiz. function (ELF)
   LORBIT       =      0    0 simple, 1 ext, 2 COOP (PROOUT), +10 PAW based schemes


 Dipole corrections
   LMONO  =      F    monopole corrections only (constant potential shift)
   LDIPOL =      F    correct potential (dipole corrections)
   IDIPOL =      0    1-x, 2-y, 3-z, 4-all directions 
   EPSILON=  1.0000000 bulk dielectric constant

 Exchange correlation treatment:
   GGA     =    --    GGA type
   LEXCH   =     8    internal setting for exchange type
   VOSKOWN=      0    Vosko Wilk Nusair interpolation
   LHFCALC =     F    Hartree Fock is set to
   LHFONE  =     F    Hartree Fock one center treatment
   AEXX    =    0.0000 exact exchange contribution

 Linear response parameters
   LEPSILON=     F    determine dielectric tensor
   LRPA    =     F    only Hartree local field effects (RPA)
   LNABLA  =     F    use nabla operator in PAW spheres
   LVEL    =     F    velocity operator in full k-point grid
   LINTERFAST=   F  fast interpolation
   KINTER  =     0    interpolate to denser k-point grid
   CSHIFT  =0.1000    complex shift for real part using Kramers Kronig
   OMEGAMAX=  -1.0    maximum frequency
   DEG_THRESHOLD= 0.2000000E-02 threshold for treating states as degnerate
   RTIME   =   -0.100 relaxation time in fs
  (WPLASMAI=    0.000 imaginary part of plasma frequency in eV, 0.658/RTIME)
   DFIELD  = 0.0000000 0.0000000 0.0000000 field for delta impulse in time
 
 Orbital magnetization related:
   ORBITALMAG=     F  switch on orbital magnetization
   LCHIMAG   =     F  perturbation theory with respect to B field
   DQ        =  0.001000  dq finite difference perturbation B field
   LLRAUG    =     F  two centre corrections for induced B field



--------------------------------------------------------------------------------------------------------


 molecular dynamics for ions
   using a microcanonical ensemble
 charge density and potential will be updated during run
 non-spin polarized calculation
 RMM-DIIS sequential band-by-band and
  variant of blocked Davidson during initial phase
 perform sub-space diagonalisation
    before iterative eigenvector-optimisation
 modified Broyden-mixing scheme, WC =      100.0
 initial mixing is a Kerker type mixing with AMIX =  0.4000 and BMIX =      1.0000
 Hartree-type preconditioning will be used
 using additional bands            4
 reciprocal scheme for non local part
 use partial core corrections
 calculate Harris-corrections to forces 
   (improved forces if not selfconsistent)
 use gradient corrections 
 use of overlap-Matrix (Vanderbilt PP)
 Gauss-broadening in eV      SIGMA  =   0.20


--------------------------------------------------------------------------------------------------------


  energy-cutoff  :      400.00
  volume of cell :     1014.38
      direct lattice vectors                 reciprocal lattice vectors
     9.987600430  0.000000000  0.000000000     0.100124150 -0.001939704  0.001080095
     0.195316061 10.081876414  0.000000000     0.000000000  0.099187885  0.002409585
    -0.113414498 -0.244728007 10.073955481     0.000000000  0.000000000  0.099265874

  length of vectors
     9.987600430 10.083768165 10.077565860     0.100148761  0.099217149  0.099265874


 
 k-points in units of 2pi/SCALE and weight: read from INCAR                         
   0.02503104  0.02431205  0.02568889       0.250
  -0.02503104  0.02528190  0.02514884       0.250
   0.02503104 -0.02528190  0.02448410       0.250
  -0.02503104 -0.02431205  0.02394405       0.250
 
 k-points in reciprocal lattice and weights: read from INCAR                         
   0.25000000  0.25000000  0.25000000       0.250
  -0.25000000  0.25000000  0.25000000       0.250
   0.25000000 -0.25000000  0.25000000       0.250
  -0.25000000 -0.25000000  0.25000000       0.250
 
 position of ions in fractional coordinates (direct lattice) 
   0.53825630  0.40628789  0.36002131
   0.39446012  0.48022850  0.43858107
   0.55229941  0.56586681  0.44294377
   0.52787518  0.41600450  0.53903133
   0.50318279  0.46719187  0.44518513
 
 position of ions in cartesian coordinates  (Angst):
   5.41441177  4.00803698  3.62683868
   3.98376491  4.73427131  4.41824615
   5.57643245  5.59659850  4.46219580
   5.29232477  4.06218990  5.43017766
   5.06634831  4.60122141  4.48477519
 


--------------------------------------------------------------------------------------------------------


 k-point  1 :   0.2500 0.2500 0.2500  plane waves:   18437
 k-point  2 :  -0.2500 0.2500 0.2500  plane waves:   18436
 k-point  3 :   0.2500-0.2500 0.2500  plane waves:   18445
 k-point  4 :  -0.2500-0.2500 0.2500  plane waves:   18405

 maximum and minimum number of plane-waves per node :      4633     4583

 maximum number of plane-waves:     18445
 maximum index in each direction: 
   IXMAX=   16   IYMAX=   16   IZMAX=   16
   IXMIN=  -16   IYMIN=  -16   IZMIN=  -16


 parallel 3D FFT for wavefunctions:
    minimum data exchange during FFTs selected (reduces bandwidth)
 parallel 3D FFT for charge:
    minimum data exchange during FFTs selected (reduces bandwidth)


 total amount of memory used by VASP MPI-rank0    55449. kBytes
=======================================================================

   base      :      30000. kBytes
   nonl-proj :       2744. kBytes
   fftplans  :       8577. kBytes
   grid      :      13527. kBytes
   one-center:          6. kBytes
   wavefun   :        595. kBytes
 
     INWAV:  cpu time    0.0000: real time    0.0001
 Broyden mixing: mesh for mixing (old mesh)
   NGX = 33   NGY = 33   NGZ = 33
  (NGX  =140   NGY  =140   NGZ  =140)
  gives a total of  35937 points

 initial charge density was supplied:
 charge density of overlapping atoms calculated
 number of electron       8.0000000 magnetization 
 keeping initial charge density in first step


--------------------------------------------------------------------------------------------------------


 Maximum index for augmentation-charges          181 (set IRDMAX)


--------------------------------------------------------------------------------------------------------


 First call to EWALD:  gamma=   0.176
 Maximum number of real-space cells 3x 3x 3
 Maximum number of reciprocal cells 3x 3x 3

    FEWALD:  cpu time    0.0014: real time    0.0014


--------------------------------------- Iteration      1(   1)  ---------------------------------------


    POTLOK:  cpu time    0.1475: real time    0.1581
    SETDIJ:  cpu time    0.0038: real time    0.0045
     EDDAV:  cpu time    0.2257: real time    0.2506
       DOS:  cpu time    0.0012: real time    0.0016
    --------------------------------------------
      LOOP:  cpu time    0.3783: real time    0.4149

 eigenvalue-minimisations  :    96
 total energy-change (2. order) : 0.1534030E+02  (-0.1973579E+03)
 number of electron       8.0000000 magnetization 
 augmentation part        8.0000000 magnetization 

 Free energy of the ion-electron system (eV)
  ---------------------------------------------------
  alpha Z        PSCENC =         0.23881558
  Ewald energy   TEWEN  =       127.30300591
  -Hartree energ DENC   =      -243.51377495
  -exchange      EXHF   =         0.00000000
  -V(xc)+E(xc)   XCENC  =        21.96136549
  PAW double counting   =       117.05815612     -117.66307307
  entropy T*S    EENTRO =        -0.00000000
  eigenvalues    EBANDS =       -87.08594601
  atomic energy  EATOM  =       197.04175453
  Solvation  Ediel_sol  =         0.00000000
  ---------------------------------------------------
  free energy    TOTEN  =        15.34030361 eV

  energy without entropy =       15.34030361  energy(sigma->0) =       15.34030361


--------------------------------------------------------------------------------------------------------




--------------------------------------- Iteration      1(   2)  ---------------------------------------


     EDDAV:  cpu time    0.1666: real time    0.1691
       DOS:  cpu time    0.0003: real time    0.0003
    --------------------------------------------
      LOOP:  cpu time    0.1669: real time    0.1694

 eigenvalue-minimisations  :    64
 total energy-change (2. order) :-0.3756804E+02  (-0.3756804E+02)
 number of electron       8.0000000 magnetization 
 augmentation part        8.0000000 magnetization 

 Free energy of the ion-electron system (eV)
  ---------------------------------------------------
  alpha Z        PSCENC =         0.23881558
  Ewald energy   TEWEN  =       127.30300591
  -Hartree energ DENC   =      -243.51377495
  -exchange      EXHF   =         0.00000000
  -V(xc)+E(xc)   XCENC  =        21.96136549
  PAW double counting   =       117.05815612     -117.66307307
  entropy T*S    EENTRO =        -0.00000000
  eigenvalues    EBANDS =      -124.65398657
  atomic energy  EATOM  =       197.04175453
  Solvation  Ediel_sol  =         0.00000000
  ---------------------------------------------------
  free energy    TOTEN  =       -22.22773695 eV

  energy without entropy =      -22.22773695  energy(sigma->0) =      -22.22773695


--------------------------------------------------------------------------------------------------------




--------------------------------------- Iteration      1(   3)  ---------------------------------------


     EDDAV:  cpu time    0.1646: real time    0.1668
       DOS:  cpu time    0.0006: real time    0.0006
    --------------------------------------------
      LOOP:  cpu time    0.1653: real time    0.1674

 eigenvalue-minimisations  :    64
 total energy-change (2. order) :-0.4981705E+01  (-0.4981705E+01)
 number of electron       8.0000000 magnetization 
 augmentation part        8.0000000 magnetization 

 Free energy of the ion-electron system (eV)
  ---------------------------------------------------
  alpha Z        PSCENC =         0.23881558
  Ewald energy   TEWEN  =       127.30300591
  -Hartree energ DENC   =      -243.51377495
  -exchange      EXHF   =         0.00000000
  -V(xc)+E(xc)   XCENC  =        21.96136549
  PAW double counting   =       117.05815612     -117.66307307
  entropy T*S    EENTRO =        -0.00000000
  eigenvalues    EBANDS =      -129.63569125
  atomic energy  EATOM  =       197.04175453
  Solvation  Ediel_sol  =         0.00000000
  ---------------------------------------------------
  free energy    TOTEN  =       -27.20944163 eV

  energy without entropy =      -27.20944163  energy(sigma->0) =      -27.20944163


--------------------------------------------------------------------------------------------------------




--------------------------------------- Iteration      1(   4)  ---------------------------------------


     EDDAV:  cpu time    0.2773: real time    0.2806
       DOS:  cpu time    0.0004: real time    0.0004
    --------------------------------------------
      LOOP:  cpu time    0.2777: real time    0.2810

 eigenvalue-minimisations  :   128
 total energy-change (2. order) :-0.2157224E+00  (-0.2157224E+00)
 number of electron       8.0000000 magnetization 
 augmentation part        8.0000000 magnetization 

 Free energy of the ion-electron system (eV)
  ---------------------------------------------------
  alpha Z        PSCENC =         0.23881558
  Ewald energy   TEWEN  =       127.30300591
  -Hartree energ DENC   =      -243.51377495
  -exchange      EXHF   =         0.00000000
  -V(xc)+E(xc)   XCENC  =        21.96136549
  PAW double counting   =       117.05815612     -117.66307307
  entropy T*S    EENTRO =        -0.00000000
  eigenvalues    EBANDS =      -129.85141362
  atomic energy  EATOM  =       197.04175453
  Solvation  Ediel_sol  =         0.00000000
  ---------------------------------------------------
  free energy    TOTEN  =       -27.42516400 eV

  energy without entropy =      -27.42516400  energy(sigma->0) =      -27.42516400


--------------------------------------------------------------------------------------------------------




--------------------------------------- Iteration      1(   5)  ---------------------------------------


     EDDAV:  cpu time    0.1924: real time    0.1948
       DOS:  cpu time    0.0006: real time    0.0006
    CHARGE:  cpu time    0.0210: real time    0.0212
    MIXING:  cpu time    0.0043: real time    0.0043
    --------------------------------------------
      LOOP:  cpu time    0.2184: real time    0.2210

 eigenvalue-minimisations  :    80
 total energy-change (2. order) :-0.8791890E-04  (-0.8791906E-04)
 number of electron       8.0000001 magnetization 
 augmentation part        0.2220863 magnetization 

 Broyden mixing:
  rms(total) = 0.85598E+00    rms(broyden)= 0.85578E+00
  rms(prec ) = 0.12182E+01
  weight for this iteration     100.00

 Free energy of the ion-electron system (eV)
  ---------------------------------------------------
  alpha Z        PSCENC =         0.23881558
  Ewald energy   TEWEN  =       127.30300591
  -Hartree energ DENC   =      -243.51377495
  -exchange      EXHF   =         0.00000000
  -V(xc)+E(xc)   XCENC  =        21.96136549
  PAW double counting   =       117.05815612     -117.66307307
  entropy T*S    EENTRO =        -0.00000000
  eigenvalues    EBANDS =      -129.85150154
  atomic energy  EATOM  =       197.04175453
  Solvation  Ediel_sol  =         0.00000000
  ---------------------------------------------------
  free energy    TOTEN  =       -27.42525192 eV

  energy without entropy =      -27.42525192  energy(sigma->0) =      -27.42525192


--------------------------------------------------------------------------------------------------------




--------------------------------------- Iteration      1(   6)  ---------------------------------------


    POTLOK:  cpu time    0.1447: real time    0.1460
    SETDIJ:  cpu time    0.0018: real time    0.0018
    EDDIAG:  cpu time    0.0469: real time    0.0552
  RMM-DIIS:  cpu time    0.1703: real time    0.1717
    ORTHCH:  cpu time    0.0016: real time    0.0017
       DOS:  cpu time    0.0002: real time    0.0002
    CHARGE:  cpu time    0.0201: real time    0.0203
    MIXING:  cpu time    0.0049: real time    0.0073
    --------------------------------------------
      LOOP:  cpu time    0.3906: real time    0.4040

 eigenvalue-minimisations  :    64
 total energy-change (2. order) : 0.2792403E+01  (-0.5149612E+00)
 number of electron       8.0000001 magnetization 
 augmentation part        0.1957753 magnetization 

 Broyden mixing:
  rms(total) = 0.42266E+00    rms(broyden)= 0.42257E+00
  rms(prec ) = 0.54966E+00
  weight for this iteration     100.00

 eigenvalues of (default mixing * dielectric matrix)
  average eigenvalue GAMMA=   1.2990
  1.2990

 Free energy of the ion-electron system (eV)
  ---------------------------------------------------
  alpha Z        PSCENC =         0.23881558
  Ewald energy   TEWEN  =       127.30300591
  -Hartree energ DENC   =      -262.89581280
  -exchange      EXHF   =         0.00000000
  -V(xc)+E(xc)   XCENC  =        23.13798759
  PAW double counting   =       235.48881129     -236.26377968
  entropy T*S    EENTRO =        -0.00000000
  eigenvalues    EBANDS =      -108.68363133
  atomic energy  EATOM  =       197.04175453
  Solvation  Ediel_sol  =         0.00000000
  ---------------------------------------------------
  free energy    TOTEN  =       -24.63284891 eV

  energy without entropy =      -24.63284891  energy(sigma->0) =      -24.63284891


--------------------------------------------------------------------------------------------------------




--------------------------------------- Iteration      1(   7)  ---------------------------------------


    POTLOK:  cpu time    0.1422: real time    0.1449
    SETDIJ:  cpu time    0.0018: real time    0.0018
    EDDIAG:  cpu time    0.0423: real time    0.0433
  RMM-DIIS:  cpu time    0.1701: real time    0.1742
    ORTHCH:  cpu time    0.0018: real time    0.0018
       DOS:  cpu time    0.0002: real time    0.0002
    CHARGE:  cpu time    0.0197: real time    0.0203
    MIXING:  cpu time    0.0048: real time    0.0049
    --------------------------------------------
      LOOP:  cpu time    0.3829: real time    0.3914

 eigenvalue-minimisations  :    64
 total energy-change (2. order) : 0.4743413E+00  (-0.1130279E+00)
 number of electron       8.0000001 magnetization 
 augmentation part        0.1856320 magnetization 

 Broyden mixing:
  rms(total) = 0.22536E+00    rms(broyden)= 0.22531E+00
  rms(prec ) = 0.27357E+00
  weight for this iteration     100.00

 eigenvalues of (default mixing * dielectric matrix)
  average eigenvalue GAMMA=   1.8398
  1.4468  2.2327

 Free energy of the ion-electron system (eV)
  ---------------------------------------------------
  alpha Z        PSCENC =         0.23881558
  Ewald energy   TEWEN  =       127.30300591
  -Hartree energ DENC   =      -274.24115527
  -exchange      EXHF   =         0.00000000
  -V(xc)+E(xc)   XCENC  =        23.97467047
  PAW double counting   =       357.22496512     -358.03657919
  entropy T*S    EENTRO =        -0.00000000
  eigenvalues    EBANDS =       -97.66398477
  atomic energy  EATOM  =       197.04175453
  Solvation  Ediel_sol  =         0.00000000
  ---------------------------------------------------
  free energy    TOTEN  =       -24.15850761 eV

  energy without entropy =      -24.15850761  energy(sigma->0) =      -24.15850761


--------------------------------------------------------------------------------------------------------




--------------------------------------- Iteration      1(   8)  ---------------------------------------


    POTLOK:  cpu time    0.1419: real time    0.1463
    SETDIJ:  cpu time    0.0019: real time    0.0019
    EDDIAG:  cpu time    0.0431: real time    0.0440
  RMM-DIIS:  cpu time    0.1683: real time    0.1728
    ORTHCH:  cpu time    0.0019: real time    0.0019
       DOS:  cpu time    0.0002: real time    0.0002
    CHARGE:  cpu time    0.0188: real time    0.0193
    MIXING:  cpu time    0.0045: real time    0.0046
    --------------------------------------------
      LOOP:  cpu time    0.3806: real time    0.3910

 eigenvalue-minimisations  :    64
 total energy-change (2. order) : 0.1447960E+00  (-0.1623382E-01)
 number of electron       8.0000001 magnetization 
 augmentation part        0.1842794 magnetization 

 Broyden mixing:
  rms(total) = 0.22766E-01    rms(broyden)= 0.22744E-01
  rms(prec ) = 0.52686E-01
  weight for this iteration     100.00

 eigenvalues of (default mixing * dielectric matrix)
  average eigenvalue GAMMA=   1.5431
  2.2480  0.9842  1.3972

 Free energy of the ion-electron system (eV)
  ---------------------------------------------------
  alpha Z        PSCENC =         0.23881558
  Ewald energy   TEWEN  =       127.30300591
  -Hartree energ DENC   =      -279.62908355
  -exchange      EXHF   =         0.00000000
  -V(xc)+E(xc)   XCENC  =        24.50934950
  PAW double counting   =       462.54767363     -463.32772020
  entropy T*S    EENTRO =        -0.00000000
  eigenvalues    EBANDS =       -92.69750706
  atomic energy  EATOM  =       197.04175453
  Solvation  Ediel_sol  =         0.00000000
  ---------------------------------------------------
  free energy    TOTEN  =       -24.01371166 eV

  energy without entropy =      -24.01371166  energy(sigma->0) =      -24.01371166


--------------------------------------------------------------------------------------------------------




--------------------------------------- Iteration      1(   9)  ---------------------------------------


    POTLOK:  cpu time    0.1418: real time    0.1472
    SETDIJ:  cpu time    0.0017: real time    0.0026
    EDDIAG:  cpu time    0.0433: real time    0.0446
  RMM-DIIS:  cpu time    0.1693: real time    0.1747
    ORTHCH:  cpu time    0.0017: real time    0.0017
       DOS:  cpu time    0.0002: real time    0.0002
    CHARGE:  cpu time    0.0190: real time    0.0196
    MIXING:  cpu time    0.0047: real time    0.0048
    --------------------------------------------
      LOOP:  cpu time    0.3816: real time    0.3954

 eigenvalue-minimisations  :    64
 total energy-change (2. order) : 0.5580577E-02  (-0.1087555E-02)
 number of electron       8.0000001 magnetization 
 augmentation part        0.1837261 magnetization 

 Broyden mixing:
  rms(total) = 0.19377E-01    rms(broyden)= 0.19373E-01
  rms(prec ) = 0.40263E-01
  weight for this iteration     100.00

 eigenvalues of (default mixing * dielectric matrix)
  average eigenvalue GAMMA=   2.0871
  3.0158  2.9647  1.0028  1.3652

 Free energy of the ion-electron system (eV)
  ---------------------------------------------------
  alpha Z        PSCENC =         0.23881558
  Ewald energy   TEWEN  =       127.30300591
  -Hartree energ DENC   =      -280.87226310
  -exchange      EXHF   =         0.00000000
  -V(xc)+E(xc)   XCENC  =        24.57735669
  PAW double counting   =       465.42371310     -466.20649203
  entropy T*S    EENTRO =        -0.00000000
  eigenvalues    EBANDS =       -91.51402176
  atomic energy  EATOM  =       197.04175453
  Solvation  Ediel_sol  =         0.00000000
  ---------------------------------------------------
  free energy    TOTEN  =       -24.00813108 eV

  energy without entropy =      -24.00813108  energy(sigma->0) =      -24.00813108


--------------------------------------------------------------------------------------------------------




--------------------------------------- Iteration      1(  10)  ---------------------------------------


    POTLOK:  cpu time    0.1358: real time    0.1392
    SETDIJ:  cpu time    0.0017: real time    0.0017
    EDDIAG:  cpu time    0.0424: real time    0.0430
  RMM-DIIS:  cpu time    0.1702: real time    0.1728
    ORTHCH:  cpu time    0.0015: real time    0.0015
       DOS:  cpu time    0.0002: real time    0.0002
    CHARGE:  cpu time    0.0191: real time    0.0194
    MIXING:  cpu time    0.0052: real time    0.0061
    --------------------------------------------
      LOOP:  cpu time    0.3760: real time    0.3839

 eigenvalue-minimisations  :    64
 total energy-change (2. order) : 0.6244893E-02  (-0.2440151E-02)
 number of electron       8.0000001 magnetization 
 augmentation part        0.1826942 magnetization 

 Broyden mixing:
  rms(total) = 0.27331E-01    rms(broyden)= 0.27330E-01
  rms(prec ) = 0.35103E-01
  weight for this iteration     100.00

 eigenvalues of (default mixing * dielectric matrix)
  average eigenvalue GAMMA=   1.7866
  3.0734  2.4114  1.2326  1.2326  0.9829

 Free energy of the ion-electron system (eV)
  ---------------------------------------------------
  alpha Z        PSCENC =         0.23881558
  Ewald energy   TEWEN  =       127.30300591
  -Hartree energ DENC   =      -283.04988753
  -exchange      EXHF   =         0.00000000
  -V(xc)+E(xc)   XCENC  =        24.64751806
  PAW double counting   =       450.02866775     -450.81489154
  entropy T*S    EENTRO =        -0.00000000
  eigenvalues    EBANDS =       -89.39686894
  atomic energy  EATOM  =       197.04175453
  Solvation  Ediel_sol  =         0.00000000
  ---------------------------------------------------
  free energy    TOTEN  =       -24.00188619 eV

  energy without entropy =      -24.00188619  energy(sigma->0) =      -24.00188619


--------------------------------------------------------------------------------------------------------




--------------------------------------- Iteration      1(  11)  ---------------------------------------


    POTLOK:  cpu time    0.1363: real time    0.1397
    SETDIJ:  cpu time    0.0017: real time    0.0017
    EDDIAG:  cpu time    0.0425: real time    0.0438
  RMM-DIIS:  cpu time    0.1641: real time    0.1687
    ORTHCH:  cpu time    0.0018: real time    0.0019
       DOS:  cpu time    0.0002: real time    0.0002
    CHARGE:  cpu time    0.0193: real time    0.0201
    MIXING:  cpu time    0.0049: real time    0.0050
    --------------------------------------------
      LOOP:  cpu time    0.3708: real time    0.3811

 eigenvalue-minimisations  :    64
 total energy-change (2. order) :-0.8698941E-03  (-0.8809272E-03)
 number of electron       8.0000001 magnetization 
 augmentation part        0.1830814 magnetization 

 Broyden mixing:
  rms(total) = 0.92491E-02    rms(broyden)= 0.92460E-02
  rms(prec ) = 0.14932E-01
  weight for this iteration     100.00

 eigenvalues of (default mixing * dielectric matrix)
  average eigenvalue GAMMA=   2.2800
  4.8762  3.0764  2.4283  1.2668  1.0161  1.0161

 Free energy of the ion-electron system (eV)
  ---------------------------------------------------
  alpha Z        PSCENC =         0.23881558
  Ewald energy   TEWEN  =       127.30300591
  -Hartree energ DENC   =      -282.93784815
  -exchange      EXHF   =         0.00000000
  -V(xc)+E(xc)   XCENC  =        24.66166103
  PAW double counting   =       459.03270607     -459.81122791
  entropy T*S    EENTRO =        -0.00000000
  eigenvalues    EBANDS =       -89.53162314
  atomic energy  EATOM  =       197.04175453
  Solvation  Ediel_sol  =         0.00000000
  ---------------------------------------------------
  free energy    TOTEN  =       -24.00275609 eV

  energy without entropy =      -24.00275609  energy(sigma->0) =      -24.00275609


--------------------------------------------------------------------------------------------------------




--------------------------------------- Iteration      1(  12)  ---------------------------------------


    POTLOK:  cpu time    0.1316: real time    0.1354
    SETDIJ:  cpu time    0.0016: real time    0.0017
    EDDIAG:  cpu time    0.0412: real time    0.0424
  RMM-DIIS:  cpu time    0.2023: real time    0.2074
    ORTHCH:  cpu time    0.0018: real time    0.0018
       DOS:  cpu time    0.0002: real time    0.0002
    CHARGE:  cpu time    0.0186: real time    0.0192
    MIXING:  cpu time    0.0051: real time    0.0052
    --------------------------------------------
      LOOP:  cpu time    0.4025: real time    0.4134

 eigenvalue-minimisations  :    64
 total energy-change (2. order) :-0.9324998E-02  (-0.3014875E-03)
 number of electron       8.0000001 magnetization 
 augmentation part        0.1832662 magnetization 

 Broyden mixing:
  rms(total) = 0.11875E-01    rms(broyden)= 0.11874E-01
  rms(prec ) = 0.15636E-01
  weight for this iteration     100.00

 eigenvalues of (default mixing * dielectric matrix)
  average eigenvalue GAMMA=   2.0190
  4.8243  2.9401  2.4259  1.2180  1.0097  1.0097  0.7050

 Free energy of the ion-electron system (eV)
  ---------------------------------------------------
  alpha Z        PSCENC =         0.23881558
  Ewald energy   TEWEN  =       127.30300591
  -Hartree energ DENC   =      -283.15406009
  -exchange      EXHF   =         0.00000000
  -V(xc)+E(xc)   XCENC  =        24.65339603
  PAW double counting   =       455.78144525     -456.55930314
  entropy T*S    EENTRO =        -0.00000000
  eigenvalues    EBANDS =       -89.31713516
  atomic energy  EATOM  =       197.04175453
  Solvation  Ediel_sol  =         0.00000000
  ---------------------------------------------------
  free energy    TOTEN  =       -24.01208108 eV

  energy without entropy =      -24.01208108  energy(sigma->0) =      -24.01208108


--------------------------------------------------------------------------------------------------------




--------------------------------------- Iteration      1(  13)  ---------------------------------------


    POTLOK:  cpu time    0.1284: real time    0.1326
    SETDIJ:  cpu time    0.0017: real time    0.0017
    EDDIAG:  cpu time    0.0425: real time    0.0440
  RMM-DIIS:  cpu time    0.1696: real time    0.1744
    ORTHCH:  cpu time    0.0016: real time    0.0017
       DOS:  cpu time    0.0002: real time    0.0002
    CHARGE:  cpu time    0.0198: real time    0.0204
    MIXING:  cpu time    0.0053: real time    0.0054
    --------------------------------------------
      LOOP:  cpu time    0.3692: real time    0.3803

 eigenvalue-minimisations  :    64
 total energy-change (2. order) :-0.5871681E-03  (-0.9965041E-04)
 number of electron       8.0000001 magnetization 
 augmentation part        0.1830238 magnetization 

 Broyden mixing:
  rms(total) = 0.44634E-02    rms(broyden)= 0.44631E-02
  rms(prec ) = 0.62315E-02
  weight for this iteration     100.00

 eigenvalues of (default mixing * dielectric matrix)
  average eigenvalue GAMMA=   2.4525
  6.2185  4.2139  2.4804  2.4108  1.2101  1.2101  0.9952  0.8810

 Free energy of the ion-electron system (eV)
  ---------------------------------------------------
  alpha Z        PSCENC =         0.23881558
  Ewald energy   TEWEN  =       127.30300591
  -Hartree energ DENC   =      -283.33011826
  -exchange      EXHF   =         0.00000000
  -V(xc)+E(xc)   XCENC  =        24.65815613
  PAW double counting   =       455.58631608     -456.36648470
  entropy T*S    EENTRO =        -0.00000000
  eigenvalues    EBANDS =       -89.14411351
  atomic energy  EATOM  =       197.04175453
  Solvation  Ediel_sol  =         0.00000000
  ---------------------------------------------------
  free energy    TOTEN  =       -24.01266825 eV

  energy without entropy =      -24.01266825  energy(sigma->0) =      -24.01266825


--------------------------------------------------------------------------------------------------------




--------------------------------------- Iteration      1(  14)  ---------------------------------------


    POTLOK:  cpu time    0.1261: real time    0.1302
    SETDIJ:  cpu time    0.0017: real time    0.0017
    EDDIAG:  cpu time    0.0419: real time    0.0432
  RMM-DIIS:  cpu time    0.1704: real time    0.1752
    ORTHCH:  cpu time    0.0020: real time    0.0020
       DOS:  cpu time    0.0002: real time    0.0002
    CHARGE:  cpu time    0.0187: real time    0.0193
    MIXING:  cpu time    0.0055: real time    0.0056
    --------------------------------------------
      LOOP:  cpu time    0.3664: real time    0.3775

 eigenvalue-minimisations  :    64
 total energy-change (2. order) :-0.2818843E-02  (-0.1258170E-03)
 number of electron       8.0000001 magnetization 
 augmentation part        0.1829066 magnetization 

 Broyden mixing:
  rms(total) = 0.30020E-02    rms(broyden)= 0.30005E-02
  rms(prec ) = 0.39168E-02
  weight for this iteration     100.00

 eigenvalues of (default mixing * dielectric matrix)
  average eigenvalue GAMMA=   2.3509
  6.4871  4.0176  2.6191  2.3650  1.2248  1.2248  1.3172  0.9830  0.9199

 Free energy of the ion-electron system (eV)
  ---------------------------------------------------
  alpha Z        PSCENC =         0.23881558
  Ewald energy   TEWEN  =       127.30300591
  -Hartree energ DENC   =      -283.32644506
  -exchange      EXHF   =         0.00000000
  -V(xc)+E(xc)   XCENC  =        24.64809231
  PAW double counting   =       454.88508106     -455.66651385
  entropy T*S    EENTRO =        -0.00000000
  eigenvalues    EBANDS =       -89.13927757
  atomic energy  EATOM  =       197.04175453
  Solvation  Ediel_sol  =         0.00000000
  ---------------------------------------------------
  free energy    TOTEN  =       -24.01548709 eV

  energy without entropy =      -24.01548709  energy(sigma->0) =      -24.01548709


--------------------------------------------------------------------------------------------------------




--------------------------------------- Iteration      1(  15)  ---------------------------------------


    POTLOK:  cpu time    0.1282: real time    0.1325
    SETDIJ:  cpu time    0.0019: real time    0.0020
    EDDIAG:  cpu time    0.0420: real time    0.0433
  RMM-DIIS:  cpu time    0.1728: real time    0.1773
    ORTHCH:  cpu time    0.0021: real time    0.0021
       DOS:  cpu time    0.0002: real time    0.0002
    CHARGE:  cpu time    0.0192: real time    0.0197
    MIXING:  cpu time    0.0057: real time    0.0058
    --------------------------------------------
      LOOP:  cpu time    0.3722: real time    0.3829

 eigenvalue-minimisations  :    64
 total energy-change (2. order) :-0.2283999E-03  (-0.3631123E-05)
 number of electron       8.0000001 magnetization 
 augmentation part        0.1828688 magnetization 

 Broyden mixing:
  rms(total) = 0.18534E-02    rms(broyden)= 0.18533E-02
  rms(prec ) = 0.24545E-02
  weight for this iteration     100.00

 eigenvalues of (default mixing * dielectric matrix)
  average eigenvalue GAMMA=   2.5468
  7.5820  4.8408  2.9013  2.6166  2.1619  1.2478  1.2478  0.9950  0.9711  0.9037

 Free energy of the ion-electron system (eV)
  ---------------------------------------------------
  alpha Z        PSCENC =         0.23881558
  Ewald energy   TEWEN  =       127.30300591
  -Hartree energ DENC   =      -283.32963433
  -exchange      EXHF   =         0.00000000
  -V(xc)+E(xc)   XCENC  =        24.64908074
  PAW double counting   =       455.06648467     -455.84739945
  entropy T*S    EENTRO =        -0.00000000
  eigenvalues    EBANDS =       -89.13782314
  atomic energy  EATOM  =       197.04175453
  Solvation  Ediel_sol  =         0.00000000
  ---------------------------------------------------
  free energy    TOTEN  =       -24.01571549 eV

  energy without entropy =      -24.01571549  energy(sigma->0) =      -24.01571549


--------------------------------------------------------------------------------------------------------




--------------------------------------- Iteration      1(  16)  ---------------------------------------


    POTLOK:  cpu time    0.1328: real time    0.1351
    SETDIJ:  cpu time    0.0017: real time    0.0017
    EDDIAG:  cpu time    0.0438: real time    0.0448
  RMM-DIIS:  cpu time    0.1672: real time    0.1713
    ORTHCH:  cpu time    0.0017: real time    0.0017
       DOS:  cpu time    0.0003: real time    0.0003
    CHARGE:  cpu time    0.0184: real time    0.0189
    MIXING:  cpu time    0.0057: real time    0.0057
    --------------------------------------------
      LOOP:  cpu time    0.3716: real time    0.3796

 eigenvalue-minimisations  :    64
 total energy-change (2. order) :-0.2020638E-03  (-0.1312500E-04)
 number of electron       8.0000001 magnetization 
 augmentation part        0.1829273 magnetization 

 Broyden mixing:
  rms(total) = 0.84272E-03    rms(broyden)= 0.84227E-03
  rms(prec ) = 0.11253E-02
  weight for this iteration     100.00

 eigenvalues of (default mixing * dielectric matrix)
  average eigenvalue GAMMA=   2.5015
  7.7948  4.8862  3.3760  2.4281  2.2020  1.4534  1.2575  1.2575  1.0195  0.9207
  0.9207

 Free energy of the ion-electron system (eV)
  ---------------------------------------------------
  alpha Z        PSCENC =         0.23881558
  Ewald energy   TEWEN  =       127.30300591
  -Hartree energ DENC   =      -283.28294230
  -exchange      EXHF   =         0.00000000
  -V(xc)+E(xc)   XCENC  =        24.64759654
  PAW double counting   =       455.10494253     -455.88520842
  entropy T*S    EENTRO =        -0.00000000
  eigenvalues    EBANDS =       -89.18388193
  atomic energy  EATOM  =       197.04175453
  Solvation  Ediel_sol  =         0.00000000
  ---------------------------------------------------
  free energy    TOTEN  =       -24.01591756 eV

  energy without entropy =      -24.01591756  energy(sigma->0) =      -24.01591756


--------------------------------------------------------------------------------------------------------




--------------------------------------- Iteration      1(  17)  ---------------------------------------


    POTLOK:  cpu time    0.1299: real time    0.1326
    SETDIJ:  cpu time    0.0016: real time    0.0017
    EDDIAG:  cpu time    0.0416: real time    0.0426
  RMM-DIIS:  cpu time    0.1669: real time    0.1709
    ORTHCH:  cpu time    0.0019: real time    0.0019
       DOS:  cpu time    0.0002: real time    0.0002
    CHARGE:  cpu time    0.0185: real time    0.0189
    MIXING:  cpu time    0.0059: real time    0.0060
    --------------------------------------------
      LOOP:  cpu time    0.3666: real time    0.3747

 eigenvalue-minimisations  :    64
 total energy-change (2. order) :-0.3141328E-04  (-0.2304901E-05)
 number of electron       8.0000001 magnetization 
 augmentation part        0.1828986 magnetization 

 Broyden mixing:
  rms(total) = 0.28041E-03    rms(broyden)= 0.28039E-03
  rms(prec ) = 0.42302E-03
  weight for this iteration     100.00

 eigenvalues of (default mixing * dielectric matrix)
  average eigenvalue GAMMA=   2.5936
  8.4334  5.2877  3.9275  2.6006  2.4785  1.8416  1.3048  1.3048  1.1137  0.9994
  0.9155  0.9155

 Free energy of the ion-electron system (eV)
  ---------------------------------------------------
  alpha Z        PSCENC =         0.23881558
  Ewald energy   TEWEN  =       127.30300591
  -Hartree energ DENC   =      -283.32357662
  -exchange      EXHF   =         0.00000000
  -V(xc)+E(xc)   XCENC  =        24.64939787
  PAW double counting   =       455.08355364     -455.86416711
  entropy T*S    EENTRO =        -0.00000000
  eigenvalues    EBANDS =       -89.14473277
  atomic energy  EATOM  =       197.04175453
  Solvation  Ediel_sol  =         0.00000000
  ---------------------------------------------------
  free energy    TOTEN  =       -24.01594897 eV

  energy without entropy =      -24.01594897  energy(sigma->0) =      -24.01594897


--------------------------------------------------------------------------------------------------------




--------------------------------------- Iteration      1(  18)  ---------------------------------------


    POTLOK:  cpu time    0.1346: real time    0.1378
    SETDIJ:  cpu time    0.0016: real time    0.0017
    EDDIAG:  cpu time    0.0418: real time    0.0427
  RMM-DIIS:  cpu time    0.1355: real time    0.1385
    ORTHCH:  cpu time    0.0016: real time    0.0016
       DOS:  cpu time    0.0002: real time    0.0002
    CHARGE:  cpu time    0.0189: real time    0.0194
    MIXING:  cpu time    0.0060: real time    0.0061
    --------------------------------------------
      LOOP:  cpu time    0.3402: real time    0.3480

 eigenvalue-minimisations  :    48
 total energy-change (2. order) :-0.1158394E-04  (-0.1065774E-06)
 number of electron       8.0000001 magnetization 
 augmentation part        0.1829005 magnetization 

 Broyden mixing:
  rms(total) = 0.70003E-04    rms(broyden)= 0.70000E-04
  rms(prec ) = 0.10932E-03
  weight for this iteration     100.00

 eigenvalues of (default mixing * dielectric matrix)
  average eigenvalue GAMMA=   2.6152
  8.4666  5.5406  3.5828  3.5828  2.3913  2.3913  1.4914  1.2835  1.2835  0.9045
  0.9846  0.9846  1.1105

 Free energy of the ion-electron system (eV)
  ---------------------------------------------------
  alpha Z        PSCENC =         0.23881558
  Ewald energy   TEWEN  =       127.30300591
  -Hartree energ DENC   =      -283.31050828
  -exchange      EXHF   =         0.00000000
  -V(xc)+E(xc)   XCENC  =        24.64866131
  PAW double counting   =       455.04561862     -455.82613097
  entropy T*S    EENTRO =        -0.00000000
  eigenvalues    EBANDS =       -89.15717725
  atomic energy  EATOM  =       197.04175453
  Solvation  Ediel_sol  =         0.00000000
  ---------------------------------------------------
  free energy    TOTEN  =       -24.01596056 eV

  energy without entropy =      -24.01596056  energy(sigma->0) =      -24.01596056


--------------------------------------------------------------------------------------------------------




--------------------------------------- Iteration      1(  19)  ---------------------------------------


    POTLOK:  cpu time    0.1338: real time    0.1376
    SETDIJ:  cpu time    0.0016: real time    0.0016
    EDDIAG:  cpu time    0.0421: real time    0.0435
  RMM-DIIS:  cpu time    0.1303: real time    0.1348
    ORTHCH:  cpu time    0.0017: real time    0.0017
       DOS:  cpu time    0.0002: real time    0.0002
    CHARGE:  cpu time    0.0184: real time    0.0190
    MIXING:  cpu time    0.0063: real time    0.0064
    --------------------------------------------
      LOOP:  cpu time    0.3345: real time    0.3449

 eigenvalue-minimisations  :    48
 total energy-change (2. order) :-0.3397663E-05  (-0.9737958E-07)
 number of electron       8.0000001 magnetization 
 augmentation part        0.1829063 magnetization 

 Broyden mixing:
  rms(total) = 0.87609E-04    rms(broyden)= 0.87596E-04
  rms(prec ) = 0.12590E-03
  weight for this iteration     100.00

 eigenvalues of (default mixing * dielectric matrix)
  average eigenvalue GAMMA=   2.5582
  8.5274  5.5832  3.9268  3.4875  2.4693  2.4693  1.9897  1.2790  1.2790  1.0590
  0.9582  0.9582  0.9140  0.9140

 Free energy of the ion-electron system (eV)
  ---------------------------------------------------
  alpha Z        PSCENC =         0.23881558
  Ewald energy   TEWEN  =       127.30300591
  -Hartree energ DENC   =      -283.30374026
  -exchange      EXHF   =         0.00000000
  -V(xc)+E(xc)   XCENC  =        24.64821907
  PAW double counting   =       455.01956834     -455.80003913
  entropy T*S    EENTRO =        -0.00000000
  eigenvalues    EBANDS =       -89.16354800
  atomic energy  EATOM  =       197.04175453
  Solvation  Ediel_sol  =         0.00000000
  ---------------------------------------------------
  free energy    TOTEN  =       -24.01596395 eV

  energy without entropy =      -24.01596395  energy(sigma->0) =      -24.01596395


--------------------------------------------------------------------------------------------------------




--------------------------------------- Iteration      1(  20)  ---------------------------------------


    POTLOK:  cpu time    0.1358: real time    0.1396
    SETDIJ:  cpu time    0.0016: real time    0.0017
    EDDIAG:  cpu time    0.0416: real time    0.0432
  RMM-DIIS:  cpu time    0.1318: real time    0.1367
    ORTHCH:  cpu time    0.0018: real time    0.0018
       DOS:  cpu time    0.0002: real time    0.0002
    --------------------------------------------
      LOOP:  cpu time    0.3127: real time    0.3230

 eigenvalue-minimisations  :    48
 total energy-change (2. order) :-0.9762329E-06  (-0.1701052E-07)
 number of electron       8.0000001 magnetization 
 augmentation part        0.1829063 magnetization 

 Free energy of the ion-electron system (eV)
  ---------------------------------------------------
  alpha Z        PSCENC =         0.23881558
  Ewald energy   TEWEN  =       127.30300591
  -Hartree energ DENC   =      -283.30754732
  -exchange      EXHF   =         0.00000000
  -V(xc)+E(xc)   XCENC  =        24.64842117
  PAW double counting   =       455.02379816     -455.80430005
  entropy T*S    EENTRO =        -0.00000000
  eigenvalues    EBANDS =       -89.15991291
  atomic energy  EATOM  =       197.04175453
  Solvation  Ediel_sol  =         0.00000000
  ---------------------------------------------------
  free energy    TOTEN  =       -24.01596493 eV

  energy without entropy =      -24.01596493  energy(sigma->0) =      -24.01596493


--------------------------------------------------------------------------------------------------------




 average (electrostatic) potential at core
  the test charge radii are     0.5201  0.6991
  (the norm of the test charge is              1.0000)
       1 -41.4806       2 -41.5323       3 -41.3549       4 -41.4006       5 -58.0160
 
 
 
 E-fermi :  -8.2760     XC(G=0):  -0.6956     alpha+bet : -0.2077


 k-point     1 :       0.2500    0.2500    0.2500
  band No.  band energies     occupation 
      1     -16.8197      2.00000
      2      -9.3415      2.00000
      3      -9.2204      2.00000
      4      -9.1984      2.00000
      5      -0.3270      0.00000
      6       0.5469      0.00000
      7       0.6600      0.00000
      8       0.6838      0.00000

 k-point     2 :      -0.2500    0.2500    0.2500
  band No.  band energies     occupation 
      1     -16.8197      2.00000
      2      -9.3415      2.00000
      3      -9.2203      2.00000
      4      -9.1984      2.00000
      5      -0.3259      0.00000
      6       0.5410      0.00000
      7       0.6517      0.00000
      8       0.6847      0.00000

 k-point     3 :       0.2500   -0.2500    0.2500
  band No.  band energies     occupation 
      1     -16.8197      2.00000
      2      -9.3416      2.00000
      3      -9.2204      2.00000
      4      -9.1985      2.00000
      5      -0.3281      0.00000
      6       0.5478      0.00000
      7       0.6589      0.00000
      8       0.6882      0.00000

 k-point     4 :      -0.2500   -0.2500    0.2500
  band No.  band energies     occupation 
      1     -16.8196      2.00000
      2      -9.3414      2.00000
      3      -9.2202      2.00000
      4      -9.1984      2.00000
      5      -0.3335      0.00000
      6       0.5605      0.00000
      7       0.6784      0.00000
      8       0.6978      0.00000


--------------------------------------------------------------------------------------------------------


 soft charge-density along one line, spin component           1
         0         1         2         3         4         5         6         7         8         9
 total charge-density along one line
 
 pseudopotential strength for first ion, spin component:           1
 -2.341  -4.034  -0.001  -0.001   0.001
 -4.034  -6.864  -0.003  -0.004   0.002
 -0.001  -0.003  -0.338   0.002  -0.001
 -0.001  -0.004   0.002  -0.336  -0.001
  0.001   0.002  -0.001  -0.001  -0.338
 total augmentation occupancy for first ion, spin component:           1
  3.537  -0.637   0.230   0.334  -0.135
 -0.637   0.129  -0.043  -0.062   0.025
  0.230  -0.043   0.021   0.018  -0.007
  0.334  -0.062   0.018   0.035  -0.011
 -0.135   0.025  -0.007  -0.011   0.013


------------------------ aborting loop because EDIFF is reached ----------------------------------------


    CHARGE:  cpu time    0.0184: real time    0.0190
    FORLOC:  cpu time    0.0112: real time    0.0115
    FORNL :  cpu time    0.0178: real time    0.0181
    STRESS:  cpu time    0.1390: real time    0.1422
    FORCOR:  cpu time    0.1321: real time    0.1371
    FORHAR:  cpu time    0.0412: real time    0.0423
    MIXING:  cpu time    0.0064: real time    0.0065
    OFIELD:  cpu time    0.0000: real time    0.0000

  FORCE on cell =-STRESS in cart. coord.  units (eV):
  Direction    XX          YY          ZZ          XY          YZ          ZX
  --------------------------------------------------------------------------------------
  Alpha Z     0.23882     0.23882     0.23882
  Ewald      43.52926    41.53906    42.23463     0.83921    -1.11077    -1.58149
  Hartree    95.02158    94.13957    94.14803     0.59328    -0.67912    -0.51658
  E(xc)     -27.11279   -27.10800   -27.10853     0.00655    -0.00660    -0.00719
  Local    -197.17960  -194.80797  -195.24032    -1.46037     1.75191     1.82619
  n-local   -15.72932   -15.64411   -15.68337     0.03374    -0.02389     0.00401
  augment     0.11751     0.12258     0.12008     0.00084    -0.00024     0.00196
  Kinetic   100.71242   100.41935   100.48002    -0.34548     0.33057     0.33903
  Fock        0.00000     0.00000     0.00000     0.00000     0.00000     0.00000
  -------------------------------------------------------------------------------------
  Total      -0.40212    -1.10070    -0.81065    -0.33224     0.26185     0.06592
  in kB      -0.63513    -1.73850    -1.28039    -0.52476     0.41359     0.10411
  external pressure =       -1.22 kB  Pullay stress =        0.00 kB

  kinetic pressure (ideal gas correction) =      0.00 kB
  total pressure  =     -1.22 kB
  Total+kin.    -0.635      -1.739      -1.280      -0.525       0.414       0.104

 VOLUME and BASIS-vectors are now :
 -----------------------------------------------------------------------------
  energy-cutoff  :      400.00
  volume of cell :     1014.38
      direct lattice vectors                 reciprocal lattice vectors
     9.987600430  0.000000000  0.000000000     0.100124150 -0.001939704  0.001080095
     0.195316061 10.081876414  0.000000000     0.000000000  0.099187885  0.002409585
    -0.113414498 -0.244728007 10.073955481     0.000000000  0.000000000  0.099265874

  length of vectors
     9.987600430 10.083768165 10.077565860     0.100148761  0.099217149  0.099265874


 FORCES acting on ions
    electron-ion (+dipol)            ewald-force                    non-local-force                 convergence-correction
 -----------------------------------------------------------------------------------------------
   -.167E+02 0.284E+02 0.410E+02   0.184E+02 -.313E+02 -.452E+02   -.173E+01 0.294E+01 0.427E+01   0.341E-04 -.690E-04 -.979E-04
   0.524E+02 -.651E+01 0.320E+01   -.580E+02 0.726E+01 -.358E+01   0.551E+01 -.663E+00 0.327E+00   -.117E-03 0.149E-04 -.917E-05
   -.236E+02 -.460E+02 0.992E+00   0.257E+02 0.500E+02 -.100E+01   -.237E+01 -.462E+01 0.126E+00   0.527E-04 0.115E-03 -.156E-05
   -.106E+02 0.252E+02 -.443E+02   0.117E+02 -.275E+02 0.484E+02   -.105E+01 0.258E+01 -.450E+01   0.234E-04 -.614E-04 0.107E-03
   -.191E+01 -.131E+01 -.120E+01   0.222E+01 0.150E+01 0.138E+01   0.131E+00 0.403E-01 0.613E-01   -.175E-04 -.807E-05 -.878E-05
 -----------------------------------------------------------------------------------------------
   -.491E+00 -.272E+00 -.279E+00   0.355E-14 -.355E-14 0.711E-14   0.490E+00 0.272E+00 0.279E+00   -.241E-04 -.840E-05 -.104E-04
 
 
 POSITION                                       TOTAL-FORCE (eV/Angst)
 -----------------------------------------------------------------------------------
      5.41441      4.00804      3.62684        -0.026590      0.004106      0.087009
      3.98376      4.73427      4.41825        -0.131325      0.088777     -0.059395
      5.57643      5.59660      4.46220        -0.318939     -0.594376      0.117353
      5.29232      4.06219      5.43018         0.030365      0.276042     -0.385822
      5.06635      4.60122      4.48478         0.446069      0.225069      0.240635
 -----------------------------------------------------------------------------------
    total drift:                               -0.000421     -0.000382     -0.000221


--------------------------------------------------------------------------------------------------------



  FREE ENERGIE OF THE ION-ELECTRON SYSTEM (eV)
  ---------------------------------------------------
  free  energy   TOTEN  =       -24.01596493 eV

  energy  without entropy=      -24.01596493  energy(sigma->0) =      -24.01596493
 


--------------------------------------------------------------------------------------------------------


    POTLOK:  cpu time    0.1387: real time    0.1436


--------------------------------------------------------------------------------------------------------


 stress matrix after NEB project (eV)
     -0.40212     -0.33224      0.06592
     -0.33224     -1.10070      0.26185
      0.06592      0.26185     -0.81065
  FORCES: max atom, RMS     0.684673    0.455905
  FORCE total and by dimension    1.019434    0.594376
  Stress total and by dimension    1.548217    1.100696
           RANDOM_SEED =         581359657                0                0
           RANDOM_SEED =         581359657               30                0
   IONSTEP:  cpu time    0.0028: real time    0.0056

  ENERGY OF THE ELECTRON-ION-THERMOSTAT SYSTEM (eV)
  ---------------------------------------------------
% ion-electron   TOTEN  =       -24.015965  see above
  kinetic energy EKIN   =         0.000231
  kin. lattice  EKIN_LAT=         0.000000  (temperature    0.45 K)
  nose potential ES     =         0.000000
  nose kinetic   EPS    =         0.000000
  ---------------------------------------------------
  total energy   ETOTAL =       -24.015734 eV

  maximum distance moved by ions :      0.16E-03

    WAVPRE:  cpu time    0.0403: real time    0.0413
    FEWALD:  cpu time    0.0003: real time    0.0003
    ORTHCH:  cpu time    0.0081: real time    0.0083
     LOOP+:  cpu time    7.2859: real time    7.5072


--------------------------------------- Iteration      2(   1)  ---------------------------------------


    POTLOK:  cpu time    0.1398: real time    0.1423
    SETDIJ:  cpu time    0.0018: real time    0.0024
     EDDAV:  cpu time    0.1920: real time    0.1989
       DOS:  cpu time    0.0002: real time    0.0002
    CHARGE:  cpu time    0.0178: real time    0.0188
    MIXING:  cpu time    0.0048: real time    0.0054
    --------------------------------------------
      LOOP:  cpu time    0.3565: real time    0.3680

 eigenvalue-minimisations  :    80
 total energy-change (2. order) :-0.1775587E-02  (-0.1965806E-03)
 number of electron       8.0000001 magnetization 
 augmentation part        0.1831285 magnetization 

 Broyden mixing:
  rms(total) = 0.21447E-02    rms(broyden)= 0.21435E-02
  rms(prec ) = 0.27032E-02
  weight for this iteration     100.00

 Free energy of the ion-electron system (eV)
  ---------------------------------------------------
  alpha Z        PSCENC =         0.23881558
  Ewald energy   TEWEN  =       127.44770764
  -Hartree energ DENC   =      -283.39403167
  -exchange      EXHF   =         0.00000000
  -V(xc)+E(xc)   XCENC  =        24.65277228
  PAW double counting   =       455.02562528     -455.80612761
  entropy T*S    EENTRO =        -0.00000000
  eigenvalues    EBANDS =       -89.22425556
  atomic energy  EATOM  =       197.04175453
  Solvation  Ediel_sol  =         0.00000000
  ---------------------------------------------------
  free energy    TOTEN  =       -24.01773954 eV

  energy without entropy =      -24.01773954  energy(sigma->0) =      -24.01773954


--------------------------------------------------------------------------------------------------------




--------------------------------------- Iteration      2(   2)  ---------------------------------------


    POTLOK:  cpu time    0.1403: real time    0.1453
    SETDIJ:  cpu time    0.0017: real time    0.0017
    EDDIAG:  cpu time    0.0422: real time    0.0439
  RMM-DIIS:  cpu time    0.1687: real time    0.1747
    ORTHCH:  cpu time    0.0015: real time    0.0016
       DOS:  cpu time    0.0002: real time    0.0002
    CHARGE:  cpu time    0.0188: real time    0.0195
    MIXING:  cpu time    0.0044: real time    0.0044
    --------------------------------------------
      LOOP:  cpu time    0.3777: real time    0.3913

 eigenvalue-minimisations  :    64
 total energy-change (2. order) : 0.7793019E-05  (-0.5059948E-05)
 number of electron       8.0000001 magnetization 
 augmentation part        0.1831012 magnetization 

 Broyden mixing:
  rms(total) = 0.11199E-02    rms(broyden)= 0.11196E-02
  rms(prec ) = 0.13468E-02
  weight for this iteration     100.00

 eigenvalues of (default mixing * dielectric matrix)
  average eigenvalue GAMMA=   1.7539
  1.7539

 Free energy of the ion-electron system (eV)
  ---------------------------------------------------
  alpha Z        PSCENC =         0.23881558
  Ewald energy   TEWEN  =       127.44770764
  -Hartree energ DENC   =      -283.42345828
  -exchange      EXHF   =         0.00000000
  -V(xc)+E(xc)   XCENC  =        24.65435356
  PAW double counting   =       455.45464585     -456.23548063
  entropy T*S    EENTRO =        -0.00000000
  eigenvalues    EBANDS =       -89.19606999
  atomic energy  EATOM  =       197.04175453
  Solvation  Ediel_sol  =         0.00000000
  ---------------------------------------------------
  free energy    TOTEN  =       -24.01773175 eV

  energy without entropy =      -24.01773175  energy(sigma->0) =      -24.01773175


--------------------------------------------------------------------------------------------------------




--------------------------------------- Iteration      2(   3)  ---------------------------------------


    POTLOK:  cpu time    0.1405: real time    0.1445
    SETDIJ:  cpu time    0.0016: real time    0.0017
    EDDIAG:  cpu time    0.0442: real time    0.0458
  RMM-DIIS:  cpu time    0.1760: real time    0.1798
    ORTHCH:  cpu time    0.0015: real time    0.0015
       DOS:  cpu time    0.0002: real time    0.0002
    CHARGE:  cpu time    0.0196: real time    0.0199
    MIXING:  cpu time    0.0047: real time    0.0049
    --------------------------------------------
      LOOP:  cpu time    0.3883: real time    0.3982

 eigenvalue-minimisations  :    64
 total energy-change (2. order) : 0.5134370E-06  (-0.1809894E-05)
 number of electron       8.0000001 magnetization 
 augmentation part        0.1830708 magnetization 

 Broyden mixing:
  rms(total) = 0.39537E-03    rms(broyden)= 0.39507E-03
  rms(prec ) = 0.47784E-03
  weight for this iteration     100.00

 eigenvalues of (default mixing * dielectric matrix)
  average eigenvalue GAMMA=   1.4606
  1.2352  1.6860

 Free energy of the ion-electron system (eV)
  ---------------------------------------------------
  alpha Z        PSCENC =         0.23881558
  Ewald energy   TEWEN  =       127.44770764
  -Hartree energ DENC   =      -283.44187748
  -exchange      EXHF   =         0.00000000
  -V(xc)+E(xc)   XCENC  =        24.65538387
  PAW double counting   =       455.76211731     -456.54318202
  entropy T*S    EENTRO =        -0.00000000
  eigenvalues    EBANDS =       -89.17845066
  atomic energy  EATOM  =       197.04175453
  Solvation  Ediel_sol  =         0.00000000
  ---------------------------------------------------
  free energy    TOTEN  =       -24.01773123 eV

  energy without entropy =      -24.01773123  energy(sigma->0) =      -24.01773123


--------------------------------------------------------------------------------------------------------




--------------------------------------- Iteration      2(   4)  ---------------------------------------


    POTLOK:  cpu time    0.1426: real time    0.1449
    SETDIJ:  cpu time    0.0018: real time    0.0018
    EDDIAG:  cpu time    0.0417: real time    0.0424
  RMM-DIIS:  cpu time    0.1340: real time    0.1369
    ORTHCH:  cpu time    0.0019: real time    0.0019
       DOS:  cpu time    0.0002: real time    0.0002
    --------------------------------------------
      LOOP:  cpu time    0.3220: real time    0.3280

 eigenvalue-minimisations  :    48
 total energy-change (2. order) : 0.1736935E-06  (-0.5282339E-07)
 number of electron       8.0000001 magnetization 
 augmentation part        0.1830708 magnetization 

 Free energy of the ion-electron system (eV)
  ---------------------------------------------------
  alpha Z        PSCENC =         0.23881558
  Ewald energy   TEWEN  =       127.44770764
  -Hartree energ DENC   =      -283.43668028
  -exchange      EXHF   =         0.00000000
  -V(xc)+E(xc)   XCENC  =        24.65517956
  PAW double counting   =       455.79428799     -456.57528353
  entropy T*S    EENTRO =        -0.00000000
  eigenvalues    EBANDS =       -89.18351254
  atomic energy  EATOM  =       197.04175453
  Solvation  Ediel_sol  =         0.00000000
  ---------------------------------------------------
  free energy    TOTEN  =       -24.01773106 eV

  energy without entropy =      -24.01773106  energy(sigma->0) =      -24.01773106


--------------------------------------------------------------------------------------------------------




 average (electrostatic) potential at core
  the test charge radii are     0.5201  0.6991
  (the norm of the test charge is              1.0000)
       1 -41.4810       2 -41.5281       3 -41.3659       4 -41.4078       5 -58.0117
 
 
 
 E-fermi :  -8.2812     XC(G=0):  -0.7064     alpha+bet : -0.2077


 k-point     1 :       0.2500    0.2500    0.2500
  band No.  band energies     occupation 
      1     -16.8241      2.00000
      2      -9.3415      2.00000
      3      -9.2236      2.00000
      4      -9.2025      2.00000
      5      -0.3292      0.00000
      6       0.5384      0.00000
      7       0.6531      0.00000
      8       0.6772      0.00000

 k-point     2 :      -0.2500    0.2500    0.2500
  band No.  band energies     occupation 
      1     -16.8241      2.00000
      2      -9.3416      2.00000
      3      -9.2236      2.00000
      4      -9.2025      2.00000
      5      -0.3280      0.00000
      6       0.5323      0.00000
      7       0.6455      0.00000
      8       0.6774      0.00000

 k-point     3 :       0.2500   -0.2500    0.2500
  band No.  band energies     occupation 
      1     -16.8241      2.00000
      2      -9.3416      2.00000
      3      -9.2236      2.00000
      4      -9.2026      2.00000
      5      -0.3302      0.00000
      6       0.5384      0.00000
      7       0.6529      0.00000
      8       0.6816      0.00000

 k-point     4 :      -0.2500   -0.2500    0.2500
  band No.  band energies     occupation 
      1     -16.8241      2.00000
      2      -9.3414      2.00000
      3      -9.2235      2.00000
      4      -9.2025      2.00000
      5      -0.3357      0.00000
      6       0.5517      0.00000
      7       0.6716      0.00000
      8       0.6919      0.00000


--------------------------------------------------------------------------------------------------------


 soft charge-density along one line, spin component           1
         0         1         2         3         4         5         6         7         8         9
 total charge-density along one line
 
 pseudopotential strength for first ion, spin component:           1
 -2.341  -4.034  -0.001  -0.001   0.001
 -4.034  -6.864  -0.003  -0.004   0.002
 -0.001  -0.003  -0.337   0.002  -0.001
 -0.001  -0.004   0.002  -0.336  -0.001
  0.001   0.002  -0.001  -0.001  -0.338
 total augmentation occupancy for first ion, spin component:           1
  3.537  -0.637   0.231   0.334  -0.135
 -0.637   0.129  -0.043  -0.062   0.025
  0.231  -0.043   0.021   0.018  -0.007
  0.334  -0.062   0.018   0.035  -0.011
 -0.135   0.025  -0.007  -0.011   0.013


------------------------ aborting loop because EDIFF is reached ----------------------------------------


    CHARGE:  cpu time    0.0189: real time    0.0194
    FORLOC:  cpu time    0.0112: real time    0.0113
    FORNL :  cpu time    0.0176: real time    0.0177
    STRESS:  cpu time    0.1405: real time    0.1422
    FORCOR:  cpu time    0.1396: real time    0.1422
    FORHAR:  cpu time    0.0433: real time    0.0447
    MIXING:  cpu time    0.0061: real time    0.0062
    OFIELD:  cpu time    0.0000: real time    0.0000

  FORCE on cell =-STRESS in cart. coord.  units (eV):
  Direction    XX          YY          ZZ          XY          YZ          ZX
  --------------------------------------------------------------------------------------
  Alpha Z     0.23882     0.23882     0.23882
  Ewald      43.53756    41.62905    42.28104     0.85275    -1.11426    -1.54835
  Hartree    95.07527    94.17147    94.18715     0.58214    -0.66942    -0.51008
  E(xc)     -27.11984   -27.11540   -27.11583     0.00632    -0.00641    -0.00705
  Local    -197.25728  -194.90129  -195.31740    -1.45013     1.73738     1.79395
  n-local   -15.74099   -15.66196   -15.69850     0.03147    -0.02234     0.00360
  augment     0.11748     0.12210     0.11978     0.00070    -0.00014     0.00190
  Kinetic   100.74384   100.46872   100.52358    -0.33409     0.32149     0.33327
  Fock        0.00000     0.00000     0.00000     0.00000     0.00000     0.00000
  -------------------------------------------------------------------------------------
  Total      -0.40514    -1.04850    -0.78136    -0.31084     0.24631     0.06723
  in kB      -0.63990    -1.65607    -1.23413    -0.49096     0.38904     0.10619
  external pressure =       -1.18 kB  Pullay stress =        0.00 kB

  kinetic pressure (ideal gas correction) =      0.00 kB
  total pressure  =     -1.18 kB
  Total+kin.    -0.639      -1.654      -1.233      -0.490       0.388       0.106

 VOLUME and BASIS-vectors are now :
 -----------------------------------------------------------------------------
  energy-cutoff  :      400.00
  volume of cell :     1014.38
      direct lattice vectors                 reciprocal lattice vectors
     9.987600430  0.000000000  0.000000000     0.100124150 -0.001939704  0.001080095
     0.195316061 10.081876414  0.000000000     0.000000000  0.099187885  0.002409585
    -0.113414498 -0.244728007 10.073955481     0.000000000  0.000000000  0.099265874

  length of vectors
     9.987600430 10.083768165 10.077565860     0.100148761  0.099217149  0.099265874


 FORCES acting on ions
    electron-ion (+dipol)            ewald-force                    non-local-force                 convergence-correction
 -----------------------------------------------------------------------------------------------
   -.167E+02 0.284E+02 0.410E+02   0.184E+02 -.313E+02 -.452E+02   -.173E+01 0.294E+01 0.427E+01   0.498E-04 0.368E-03 0.458E-03
   0.524E+02 -.651E+01 0.321E+01   -.580E+02 0.726E+01 -.359E+01   0.551E+01 -.663E+00 0.327E+00   0.784E-03 0.167E-04 0.167E-03
   -.236E+02 -.461E+02 0.985E+00   0.257E+02 0.502E+02 -.996E+00   -.238E+01 -.464E+01 0.125E+00   0.108E-03 -.967E-04 0.141E-03
   -.107E+02 0.252E+02 -.443E+02   0.118E+02 -.275E+02 0.485E+02   -.106E+01 0.258E+01 -.452E+01   0.123E-03 0.285E-03 -.137E-03
   -.180E+01 -.125E+01 -.114E+01   0.209E+01 0.142E+01 0.131E+01   0.112E+00 0.305E-01 0.503E-01   0.182E-03 0.194E-03 0.256E-03
 -----------------------------------------------------------------------------------------------
[...]
      5.55882      5.56464      4.47093         0.238174      0.487985      0.028484
      5.29678      4.07827      5.40938         0.113116     -0.153156      0.300540
      5.06809      4.60207      4.48569        -0.487443     -0.297951     -0.285304
 -----------------------------------------------------------------------------------
    total drift:                               -0.000365      0.000266     -0.000437


--------------------------------------------------------------------------------------------------------



  FREE ENERGIE OF THE ION-ELECTRON SYSTEM (eV)
  ---------------------------------------------------
  free  energy   TOTEN  =       -24.02281860 eV

  energy  without entropy=      -24.02281860  energy(sigma->0) =      -24.02281860
 
 d Force =-0.3017045E-02[-0.364E-02,-0.239E-02]  d Energy =-0.3015004E-02-0.204E-05
 d Force =-0.4549338E+00[-0.456E+00,-0.453E+00]  d Ewald  =-0.4549314E+00-0.246E-05


--------------------------------------------------------------------------------------------------------


    POTLOK:  cpu time    0.1394: real time    0.1409


--------------------------------------------------------------------------------------------------------


 stress matrix after NEB project (eV)
     -0.38069      0.18085      0.08363
      0.18085      0.18462     -0.11201
      0.08363     -0.11201     -0.08209
  FORCES: max atom, RMS     0.638571    0.412203
  FORCE total and by dimension    0.921714    0.487985
  Stress total and by dimension    0.538736    0.380687
           RANDOM_SEED =         581359657               30                0
   IONSTEP:  cpu time    0.0002: real time    0.0002

  ENERGY OF THE ELECTRON-ION-THERMOSTAT SYSTEM (eV)
  ---------------------------------------------------
% ion-electron   TOTEN  =       -24.022819  see above
  kinetic energy EKIN   =         0.006966
  kin. lattice  EKIN_LAT=         0.000000  (temperature   13.47 K)
  nose potential ES     =         0.000000
  nose kinetic   EPS    =         0.000000
  ---------------------------------------------------
  total energy   ETOTAL =       -24.015853 eV

  maximum distance moved by ions :      0.37E-03

    WAVPRE:  cpu time    0.0458: real time    0.0466
    FEWALD:  cpu time    0.0008: real time    0.0008
    ORTHCH:  cpu time    0.0080: real time    0.0081
 Prediction of Wavefunctions ALPHA= 2.204 BETA=-1.243
     LOOP+:  cpu time    2.2570: real time    2.2800


--------------------------------------- Iteration     10(   1)  ---------------------------------------


    POTLOK:  cpu time    0.1375: real time    0.1406
    SETDIJ:  cpu time    0.0017: real time    0.0017
     EDDAV:  cpu time    0.1679: real time    0.1707
       DOS:  cpu time    0.0002: real time    0.0002
    CHARGE:  cpu time    0.0181: real time    0.0184
    MIXING:  cpu time    0.0047: real time    0.0048
    --------------------------------------------
      LOOP:  cpu time    0.3302: real time    0.3365

 eigenvalue-minimisations  :    64
 total energy-change (2. order) : 0.2831527E-02  (-0.2338944E-04)
 number of electron       8.0000002 magnetization 
 augmentation part        0.1873327 magnetization 

 Broyden mixing:
  rms(total) = 0.15547E-03    rms(broyden)= 0.15515E-03
  rms(prec ) = 0.16566E-03
  weight for this iteration     100.00

 Free energy of the ion-electron system (eV)
  ---------------------------------------------------
  alpha Z        PSCENC =         0.23881558
  Ewald energy   TEWEN  =       131.04517990
  -Hartree energ DENC   =      -286.59894002
  -exchange      EXHF   =         0.00000000
  -V(xc)+E(xc)   XCENC  =        24.82257085
  PAW double counting   =       477.52338223     -478.31704269
  entropy T*S    EENTRO =        -0.00000000
  eigenvalues    EBANDS =       -89.77570660
  atomic energy  EATOM  =       197.04175453
  Solvation  Ediel_sol  =         0.00000000
  ---------------------------------------------------
  free energy    TOTEN  =       -24.01998623 eV

  energy without entropy =      -24.01998623  energy(sigma->0) =      -24.01998623


--------------------------------------------------------------------------------------------------------




--------------------------------------- Iteration     10(   2)  ---------------------------------------


    POTLOK:  cpu time    0.1373: real time    0.1392
    SETDIJ:  cpu time    0.0018: real time    0.0018
    EDDIAG:  cpu time    0.0412: real time    0.0419
  RMM-DIIS:  cpu time    0.1683: real time    0.1711
    ORTHCH:  cpu time    0.0015: real time    0.0015
       DOS:  cpu time    0.0002: real time    0.0002
    CHARGE:  cpu time    0.0188: real time    0.0192
    MIXING:  cpu time    0.0044: real time    0.0048
    --------------------------------------------
      LOOP:  cpu time    0.3735: real time    0.3797

 eigenvalue-minimisations  :    64
 total energy-change (2. order) :-0.1085225E-05  (-0.5190511E-06)
 number of electron       8.0000002 magnetization 
 augmentation part        0.1873397 magnetization 

 Broyden mixing:
  rms(total) = 0.66999E-04    rms(broyden)= 0.66545E-04
  rms(prec ) = 0.75235E-04
  weight for this iteration     100.00

 eigenvalues of (default mixing * dielectric matrix)
  average eigenvalue GAMMA=   0.7368
  0.7368

 Free energy of the ion-electron system (eV)
  ---------------------------------------------------
  alpha Z        PSCENC =         0.23881558
  Ewald energy   TEWEN  =       131.04517990
  -Hartree energ DENC   =      -286.59827246
  -exchange      EXHF   =         0.00000000
  -V(xc)+E(xc)   XCENC  =        24.82251819
  PAW double counting   =       477.54285089     -478.33649081
  entropy T*S    EENTRO =        -0.00000000
  eigenvalues    EBANDS =       -89.77634313
  atomic energy  EATOM  =       197.04175453
  Solvation  Ediel_sol  =         0.00000000
  ---------------------------------------------------
  free energy    TOTEN  =       -24.01998731 eV

  energy without entropy =      -24.01998731  energy(sigma->0) =      -24.01998731


--------------------------------------------------------------------------------------------------------




--------------------------------------- Iteration     10(   3)  ---------------------------------------


    POTLOK:  cpu time    0.1413: real time    0.1432
    SETDIJ:  cpu time    0.0017: real time    0.0017
    EDDIAG:  cpu time    0.0418: real time    0.0426
  RMM-DIIS:  cpu time    0.1346: real time    0.1375
    ORTHCH:  cpu time    0.0015: real time    0.0015
       DOS:  cpu time    0.0002: real time    0.0002
    CHARGE:  cpu time    0.0186: real time    0.0189
    MIXING:  cpu time    0.0048: real time    0.0048
    --------------------------------------------
      LOOP:  cpu time    0.3443: real time    0.3504

 eigenvalue-minimisations  :    48
 total energy-change (2. order) :-0.3470003E-06  (-0.9136358E-08)
 number of electron       8.0000002 magnetization 
 augmentation part        0.1873401 magnetization 

 Broyden mixing:
  rms(total) = 0.55111E-04    rms(broyden)= 0.55078E-04
  rms(prec ) = 0.61668E-04
  weight for this iteration     100.00

 eigenvalues of (default mixing * dielectric matrix)
  average eigenvalue GAMMA=   1.4423
  1.2574  1.6272

 Free energy of the ion-electron system (eV)
  ---------------------------------------------------
  alpha Z        PSCENC =         0.23881558
  Ewald energy   TEWEN  =       131.04517990
  -Hartree energ DENC   =      -286.59831135
  -exchange      EXHF   =         0.00000000
  -V(xc)+E(xc)   XCENC  =        24.82252541
  PAW double counting   =       477.53587678     -478.32951470
  entropy T*S    EENTRO =        -0.00000000
  eigenvalues    EBANDS =       -89.77631381
  atomic energy  EATOM  =       197.04175453
  Solvation  Ediel_sol  =         0.00000000
  ---------------------------------------------------
  free energy    TOTEN  =       -24.01998766 eV

  energy without entropy =      -24.01998766  energy(sigma->0) =      -24.01998766


--------------------------------------------------------------------------------------------------------




--------------------------------------- Iteration     10(   4)  ---------------------------------------


    POTLOK:  cpu time    0.1373: real time    0.1392
    SETDIJ:  cpu time    0.0018: real time    0.0018
    EDDIAG:  cpu time    0.0423: real time    0.0431
  RMM-DIIS:  cpu time    0.1262: real time    0.1282
    ORTHCH:  cpu time    0.0016: real time    0.0016
       DOS:  cpu time    0.0002: real time    0.0002
    --------------------------------------------
      LOOP:  cpu time    0.3092: real time    0.3139

 eigenvalue-minimisations  :    36
 total energy-change (2. order) :-0.6711599E-06  (-0.8933423E-09)
 number of electron       8.0000002 magnetization 
 augmentation part        0.1873401 magnetization 

 Free energy of the ion-electron system (eV)
  ---------------------------------------------------
  alpha Z        PSCENC =         0.23881558
  Ewald energy   TEWEN  =       131.04517990
  -Hartree energ DENC   =      -286.59847289
  -exchange      EXHF   =         0.00000000
  -V(xc)+E(xc)   XCENC  =        24.82254748
  PAW double counting   =       477.51413246     -478.30776741
  entropy T*S    EENTRO =        -0.00000000
  eigenvalues    EBANDS =       -89.77617797
  atomic energy  EATOM  =       197.04175453
  Solvation  Ediel_sol  =         0.00000000
  ---------------------------------------------------
  free energy    TOTEN  =       -24.01998833 eV

  energy without entropy =      -24.01998833  energy(sigma->0) =      -24.01998833


--------------------------------------------------------------------------------------------------------




 average (electrostatic) potential at core
  the test charge radii are     0.5201  0.6991
  (the norm of the test charge is              1.0000)
       1 -41.4923       2 -41.4394       3 -41.6470       4 -41.5875       5 -57.9183
 
 
 
 E-fermi :  -8.3349     XC(G=0):  -0.6885     alpha+bet : -0.2077


 k-point     1 :       0.2500    0.2500    0.2500
  band No.  band energies     occupation 
      1     -16.9399      2.00000
      2      -9.3878      2.00000
      3      -9.3057      2.00000
      4      -9.2546      2.00000
      5      -0.3042      0.00000
      6       0.5581      0.00000
      7       0.6697      0.00000
      8       0.6893      0.00000

 k-point     2 :      -0.2500    0.2500    0.2500
  band No.  band energies     occupation 
      1     -16.9399      2.00000
      2      -9.3878      2.00000
      3      -9.3057      2.00000
      4      -9.2546      2.00000
      5      -0.3024      0.00000
      6       0.5493      0.00000
      7       0.6652      0.00000
      8       0.6855      0.00000

 k-point     3 :       0.2500   -0.2500    0.2500
  band No.  band energies     occupation 
      1     -16.9399      2.00000
      2      -9.3879      2.00000
      3      -9.3058      2.00000
      4      -9.2547      2.00000
      5      -0.3051      0.00000
      6       0.5581      0.00000
      7       0.6704      0.00000
      8       0.6915      0.00000

 k-point     4 :      -0.2500   -0.2500    0.2500
  band No.  band energies     occupation 
      1     -16.9399      2.00000
      2      -9.3878      2.00000
      3      -9.3057      2.00000
      4      -9.2545      2.00000
      5      -0.3112      0.00000
      6       0.5788      0.00000
      7       0.6824      0.00000
      8       0.7026      0.00000


--------------------------------------------------------------------------------------------------------


 soft charge-density along one line, spin component           1
         0         1         2         3         4         5         6         7         8         9
 total charge-density along one line
 
 pseudopotential strength for first ion, spin component:           1
 -2.341  -4.034  -0.001  -0.001   0.001
 -4.034  -6.864  -0.003  -0.004   0.002
 -0.001  -0.003  -0.337   0.002  -0.001
 -0.001  -0.004   0.002  -0.336  -0.001
  0.001   0.002  -0.001  -0.001  -0.338
 total augmentation occupancy for first ion, spin component:           1
  3.551  -0.639   0.234   0.336  -0.136
 -0.639   0.129  -0.043  -0.062   0.025
  0.234  -0.043   0.022   0.019  -0.007
  0.336  -0.062   0.019   0.036  -0.011
 -0.136   0.025  -0.007  -0.011   0.013


------------------------ aborting loop because EDIFF is reached ----------------------------------------


    CHARGE:  cpu time    0.0184: real time    0.0186
    FORLOC:  cpu time    0.0115: real time    0.0117
    FORNL :  cpu time    0.0175: real time    0.0177
    STRESS:  cpu time    0.1412: real time    0.1426
    FORCOR:  cpu time    0.1394: real time    0.1415
    FORHAR:  cpu time    0.0431: real time    0.0445
    MIXING:  cpu time    0.0053: real time    0.0055
    OFIELD:  cpu time    0.0000: real time    0.0000

  FORCE on cell =-STRESS in cart. coord.  units (eV):
  Direction    XX          YY          ZZ          XY          YZ          ZX
  --------------------------------------------------------------------------------------
  Alpha Z     0.23882     0.23882     0.23882
  Ewald      43.85387    43.83006    43.36120     0.91751    -0.88668    -0.34856
  Hartree    96.40341    95.01931    95.17575     0.25621    -0.36707    -0.24642
  E(xc)     -27.29652   -27.29963   -27.29801    -0.00010    -0.00043    -0.00184
  Local    -199.22484  -197.22039  -197.18206    -0.91889     1.06494     0.59124
  n-local   -16.04475   -16.11148   -16.08130    -0.02396     0.01582    -0.00603
  augment     0.11559     0.10913     0.11211    -0.00258     0.00184    -0.00015
  Kinetic   101.58799   101.74084   101.66499     0.00347     0.02155     0.08890
  Fock        0.00000     0.00000     0.00000     0.00000     0.00000     0.00000
  -------------------------------------------------------------------------------------
  Total      -0.36642     0.30665    -0.00851     0.23166    -0.15003     0.07714
  in kB      -0.57875     0.48434    -0.01344     0.36590    -0.23696     0.12183
  external pressure =       -0.04 kB  Pullay stress =        0.00 kB

  kinetic pressure (ideal gas correction) =      0.01 kB
  total pressure  =     -0.03 kB
  Total+kin.    -0.575       0.493      -0.008       0.371      -0.244       0.118

 VOLUME and BASIS-vectors are now :
 -----------------------------------------------------------------------------
  energy-cutoff  :      400.00
  volume of cell :     1014.38
      direct lattice vectors                 reciprocal lattice vectors
     9.987600430  0.000000000  0.000000000     0.100124150 -0.001939704  0.001080095
     0.195316061 10.081876414  0.000000000     0.000000000  0.099187885  0.002409585
    -0.113414498 -0.244728007 10.073955481     0.000000000  0.000000000  0.099265874

  length of vectors
     9.987600430 10.083768165 10.077565860     0.100148761  0.099217149  0.099265874


 FORCES acting on ions
    electron-ion (+dipol)            ewald-force                    non-local-force                 convergence-correction
 -----------------------------------------------------------------------------------------------
   -.167E+02 0.288E+02 0.413E+02   0.184E+02 -.319E+02 -.456E+02   -.173E+01 0.299E+01 0.429E+01   -.223E-04 -.437E-05 -.105E-04
   0.522E+02 -.672E+01 0.348E+01   -.574E+02 0.739E+01 -.384E+01   0.536E+01 -.682E+00 0.356E+00   -.255E-05 -.376E-05 -.129E-04
   -.244E+02 -.480E+02 0.627E+00   0.274E+02 0.537E+02 -.690E+00   -.263E+01 -.516E+01 0.760E-01   -.288E-04 -.121E-04 -.655E-05
   -.114E+02 0.258E+02 -.455E+02   0.127E+02 -.287E+02 0.507E+02   -.120E+01 0.274E+01 -.484E+01   -.162E-04 0.650E-06 -.149E-04
   0.832E+00 0.384E+00 0.421E+00   -.110E+01 -.543E+00 -.573E+00   -.295E+00 -.187E+00 -.179E+00   -.162E-03 -.230E-04 -.872E-04
 -----------------------------------------------------------------------------------------------
   0.497E+00 0.295E+00 0.289E+00   0.355E-14 -.355E-14 -.711E-14   -.496E+00 -.294E+00 -.289E+00   -.232E-03 -.426E-04 -.132E-03
 
 
 POSITION                                       TOTAL-FORCE (eV/Angst)
 -----------------------------------------------------------------------------------
      5.41238      4.00708      3.63308         0.013940     -0.045141     -0.047747
      3.97760      4.74168      4.41295         0.142201     -0.005246     -0.003599
      5.55708      5.56184      4.47269         0.294753      0.594447      0.013308
      5.29829      4.08024      5.40747         0.113909     -0.198202      0.368236
      5.06815      4.60208      4.48571        -0.564612     -0.345477     -0.330421
 -----------------------------------------------------------------------------------
    total drift:                                0.000191      0.000380     -0.000223


--------------------------------------------------------------------------------------------------------



  FREE ENERGIE OF THE ION-ELECTRON SYSTEM (eV)
  ---------------------------------------------------
  free  energy   TOTEN  =       -24.01998833 eV

  energy  without entropy=      -24.01998833  energy(sigma->0) =      -24.01998833
 
 d Force =-0.2833525E-02[-0.317E-02,-0.249E-02]  d Energy =-0.2830265E-02-0.326E-05
 d Force =-0.3384277E+00[-0.339E+00,-0.338E+00]  d Ewald  =-0.3384272E+00-0.475E-06


--------------------------------------------------------------------------------------------------------


    POTLOK:  cpu time    0.1456: real time    0.1505


--------------------------------------------------------------------------------------------------------


 stress matrix after NEB project (eV)
     -0.36642      0.23166      0.07714
      0.23166      0.30665     -0.15003
      0.07714     -0.15003     -0.00851
  FORCES: max atom, RMS     0.739810    0.489974
  FORCE total and by dimension    1.095615    0.594447
  Stress total and by dimension    0.626593    0.366421
           RANDOM_SEED =         581359657               30                0
   IONSTEP:  cpu time    0.0001: real time    0.0001

  ENERGY OF THE ELECTRON-ION-THERMOSTAT SYSTEM (eV)
  ---------------------------------------------------
% ion-electron   TOTEN  =       -24.019988  see above
  kinetic energy EKIN   =         0.004199
  kin. lattice  EKIN_LAT=         0.000000  (temperature    8.12 K)
  nose potential ES     =         0.000000
  nose kinetic   EPS    =         0.000000
  ---------------------------------------------------
  total energy   ETOTAL =       -24.015789 eV

  maximum distance moved by ions :      0.25E-03


 mean value of Nose-termostat <S>:     1.000 mean value of <T> :    13.919
 mean temperature <T/S>/<1/S>  :    13.919

    WAVPRE:  cpu time    0.0502: real time    0.0515
    FEWALD:  cpu time    0.0003: real time    0.0003
    ORTHCH:  cpu time    0.0101: real time    0.0104
 Prediction of Wavefunctions ALPHA= 2.123 BETA=-1.150
    POTLOK:  cpu time    0.1433: real time    0.1482
    EDDIAG:  cpu time    0.0847: real time    0.0896
     LOOP+:  cpu time    2.1723: real time    2.2178
    4ORBIT:  cpu time    0.0000: real time    0.0006

 total amount of memory used by VASP MPI-rank0    56639. kBytes
=======================================================================

   base      :      30000. kBytes
   nonl-proj :       2744. kBytes
   fftplans  :       8577. kBytes
   grid      :      13527. kBytes
   one-center:          6. kBytes
   wavefun   :       1785. kBytes
 
  
  
 General timing and accounting informations for this job:
 ========================================================
  
                  Total CPU time used (sec):       28.459
                            User time (sec):       26.773
                          System time (sec):        1.687
                         Elapsed time (sec):       29.704
  
                   Maximum memory used (kb):      179156.
                   Average memory used (kb):           0.
  
                          Minor page faults:       258898
                          Major page faults:          202
                 Voluntary context switches:          646
