unknown system                          
           1
     9.987600    0.000000    0.000000
     0.195316   10.081876    0.000000
    -0.113414   -0.244728   10.073955
   H    C 
   4   1
Direct configuration=     1
   0.53825630  0.40628789  0.36002131
   0.39446012  0.48022850  0.43858107
   0.55229941  0.56586681  0.44294377
   0.52787518  0.41600450  0.53903133
   0.50318279  0.46719187  0.44518513
Direct configuration=     2
   0.53825045  0.40628946  0.36004220
   0.39442761  0.48024991  0.43856683
   0.55222504  0.56572453  0.44297173
   0.52788120  0.41606783  0.53893902
   0.50319168  0.46719653  0.44518994
Direct configuration=     3
   0.53823871  0.40629185  0.36008261
   0.39436587  0.48029142  0.43853874
   0.55208202  0.56545133  0.44302704
   0.52789342  0.41619084  0.53876133
   0.50320869  0.46720538  0.44519910
Direct configuration=     4
   0.53822153  0.40629409  0.36014051
   0.39428141  0.48035142  0.43849757
   0.55188046  0.56506753  0.44310826
   0.52791404  0.41636570  0.53851146
   0.50323221  0.46721759  0.44521175
Direct configuration=     5
   0.53819968  0.40629470  0.36021283
   0.39418282  0.48042768  0.43844441
   0.55163496  0.56460244  0.44321327
   0.52794616  0.41658117  0.53820840
   0.50326000  0.46723197  0.44522664
Direct configuration=     6
   0.53817417  0.40629181  0.36029557
   0.39407998  0.48051751  0.43838065
   0.55136385  0.56409288  0.44333933
   0.52799360  0.41682318  0.53787581
   0.50328931  0.46724701  0.44524225
Direct configuration=     7
   0.53814624  0.40628342  0.36038425
   0.39398328  0.48061785  0.43830795
   0.55108789  0.56358048  0.44348325
   0.52806045  0.41707590  0.53754018
   0.50331710  0.46726098  0.44525689
Direct configuration=     8
   0.53811717  0.40626772  0.36047434
   0.39390282  0.48072554  0.43822818
   0.55082867  0.56310841  0.44364147
   0.52815062  0.41732305  0.53722863
   0.50334029  0.46727204  0.44526879
Direct configuration=     9
   0.53808845  0.40624302  0.36056121
   0.39384712  0.48083741  0.43814335
   0.55060690  0.56271800  0.44381028
   0.52826744  0.41754893  0.53696695
   0.50335606  0.46727848  0.44527636
Direct configuration=    10
   0.53806161  0.40620803  0.36064048
   0.39382240  0.48095057  0.43805555
   0.55044045  0.56244450  0.44398591
   0.52841308  0.41773992  0.53677724
   0.50336208  0.46727885  0.44527824
