   5   5   0   0
  0.1987002E+03  0.9703409E-09  0.1026481E-08  0.9974718E-09  0.5000000E-15
  1.000000000000000E-004
  CAR 
 unknown system                          
      2.70704351    -18.86759838  301     -8.22396792      1.00000000
    -18.868  0.0000E+00  0.0000E+00
    -18.796  0.0000E+00  0.0000E+00
    -18.724  0.0000E+00  0.0000E+00
    -18.652  0.0000E+00  0.0000E+00
    -18.580  0.0000E+00  0.0000E+00
    -18.508  0.0000E+00  0.0000E+00
    -18.436  0.0000E+00  0.0000E+00
    -18.364  0.0000E+00  0.0000E+00
    -18.292  0.0000E+00  0.0000E+00
    -18.220  0.0000E+00  0.0000E+00
    -18.148  0.0000E+00  0.0000E+00
    -18.077  0.0000E+00  0.0000E+00
    -18.005  0.1296E-13  0.9326E-15
    -17.933  0.7158E-12  0.5246E-13
    -17.861  0.3083E-10  0.2272E-11
    -17.789  0.1028E-08  0.7630E-10
    -17.717  0.2657E-07  0.1989E-08
    -17.645  0.5315E-06  0.4025E-07
    -17.573  0.8238E-05  0.6332E-06
    -17.501  0.9895E-04  0.7755E-05
    -17.429  0.9211E-03  0.7406E-04
    -17.357  0.6648E-02  0.5526E-03
    -17.285  0.3720E-01  0.3230E-02
    -17.214  0.1615E+00  0.1485E-01
    -17.142  0.5436E+00  0.5398E-01
    -17.070  0.1420E+01  0.1562E+00
    -16.998  0.2878E+01  0.3633E+00
    -16.926  0.4526E+01  0.6891E+00
    -16.854  0.5524E+01  0.1087E+01
    -16.782  0.5232E+01  0.1463E+01
    -16.710  0.3847E+01  0.1740E+01
    -16.638  0.2194E+01  0.1898E+01
    -16.566  0.9715E+00  0.1968E+01
    -16.494  0.3337E+00  0.1992E+01
    -16.422  0.8894E-01  0.1998E+01
    -16.351  0.1838E-01  0.2000E+01
    -16.279  0.2947E-02  0.2000E+01
    -16.207  0.3664E-03  0.2000E+01
    -16.135  0.3531E-04  0.2000E+01
    -16.063  0.2637E-05  0.2000E+01
    -15.991  0.1526E-06  0.2000E+01
    -15.919  0.6845E-08  0.2000E+01
    -15.847  0.2377E-09  0.2000E+01
    -15.775  0.6394E-11  0.2000E+01
    -15.703  0.1340E-12  0.2000E+01
    -15.631  0.1158E-14  0.2000E+01
    -15.559  0.0000E+00  0.2000E+01
    -15.488  0.0000E+00  0.2000E+01
    -15.416  0.0000E+00  0.2000E+01
    -15.344  0.0000E+00  0.2000E+01
    -15.272  0.0000E+00  0.2000E+01
    -15.200  0.0000E+00  0.2000E+01
    -15.128  0.0000E+00  0.2000E+01
    -15.056  0.0000E+00  0.2000E+01
    -14.984  0.0000E+00  0.2000E+01
    -14.912  0.0000E+00  0.2000E+01
    -14.840  0.0000E+00  0.2000E+01
    -14.768  0.0000E+00  0.2000E+01
    -14.697  0.0000E+00  0.2000E+01
    -14.625  0.0000E+00  0.2000E+01
    -14.553  0.0000E+00  0.2000E+01
    -14.481  0.0000E+00  0.2000E+01
    -14.409  0.0000E+00  0.2000E+01
    -14.337  0.0000E+00  0.2000E+01
    -14.265  0.0000E+00  0.2000E+01
    -14.193  0.0000E+00  0.2000E+01
    -14.121  0.0000E+00  0.2000E+01
    -14.049  0.0000E+00  0.2000E+01
    -13.977  0.0000E+00  0.2000E+01
    -13.905  0.0000E+00  0.2000E+01
    -13.834  0.0000E+00  0.2000E+01
    -13.762  0.0000E+00  0.2000E+01
    -13.690  0.0000E+00  0.2000E+01
    -13.618  0.0000E+00  0.2000E+01
    -13.546  0.0000E+00  0.2000E+01
    -13.474  0.0000E+00  0.2000E+01
    -13.402  0.0000E+00  0.2000E+01
    -13.330  0.0000E+00  0.2000E+01
    -13.258  0.0000E+00  0.2000E+01
    -13.186  0.0000E+00  0.2000E+01
    -13.114  0.0000E+00  0.2000E+01
    -13.042  0.0000E+00  0.2000E+01
    -12.971  0.0000E+00  0.2000E+01
    -12.899  0.0000E+00  0.2000E+01
    -12.827  0.0000E+00  0.2000E+01
    -12.755  0.0000E+00  0.2000E+01
    -12.683  0.0000E+00  0.2000E+01
    -12.611  0.0000E+00  0.2000E+01
    -12.539  0.0000E+00  0.2000E+01
    -12.467  0.0000E+00  0.2000E+01
    -12.395  0.0000E+00  0.2000E+01
    -12.323  0.0000E+00  0.2000E+01
    -12.251  0.0000E+00  0.2000E+01
    -12.179  0.0000E+00  0.2000E+01
    -12.108  0.0000E+00  0.2000E+01
    -12.036  0.0000E+00  0.2000E+01
    -11.964  0.0000E+00  0.2000E+01
    -11.892  0.0000E+00  0.2000E+01
    -11.820  0.0000E+00  0.2000E+01
    -11.748  0.0000E+00  0.2000E+01
    -11.676  0.0000E+00  0.2000E+01
    -11.604  0.0000E+00  0.2000E+01
    -11.532  0.0000E+00  0.2000E+01
    -11.460  0.0000E+00  0.2000E+01
    -11.388  0.0000E+00  0.2000E+01
    -11.316  0.0000E+00  0.2000E+01
    -11.245  0.0000E+00  0.2000E+01
    -11.173  0.0000E+00  0.2000E+01
    -11.101  0.0000E+00  0.2000E+01
    -11.029  0.0000E+00  0.2000E+01
    -10.957  0.0000E+00  0.2000E+01
    -10.885  0.0000E+00  0.2000E+01
    -10.813  0.0000E+00  0.2000E+01
    -10.741  0.0000E+00  0.2000E+01
    -10.669  0.0000E+00  0.2000E+01
    -10.597  0.0000E+00  0.2000E+01
    -10.525  0.6173E-14  0.2000E+01
    -10.453  0.3626E-12  0.2000E+01
    -10.382  0.1601E-10  0.2000E+01
    -10.310  0.5493E-09  0.2000E+01
    -10.238  0.1465E-07  0.2000E+01
    -10.166  0.3037E-06  0.2000E+01
    -10.094  0.4900E-05  0.2000E+01
    -10.022  0.6161E-04  0.2000E+01
     -9.950  0.6043E-03  0.2000E+01
     -9.878  0.4634E-02  0.2000E+01
     -9.806  0.2785E-01  0.2002E+01
     -9.734  0.1316E+00  0.2012E+01
     -9.662  0.4918E+00  0.2047E+01
     -9.591  0.1461E+01  0.2152E+01
     -9.519  0.3482E+01  0.2403E+01
     -9.447  0.6713E+01  0.2886E+01
     -9.375  0.1057E+02  0.3647E+01
     -9.303  0.1369E+02  0.4632E+01
     -9.231  0.1465E+02  0.5687E+01
     -9.159  0.1295E+02  0.6619E+01
     -9.087  0.9414E+01  0.7297E+01
     -9.015  0.5594E+01  0.7699E+01
     -8.943  0.2699E+01  0.7894E+01
     -8.871  0.1050E+01  0.7969E+01
     -8.799  0.3278E+00  0.7993E+01
     -8.728  0.8169E-01  0.7999E+01
     -8.656  0.1619E-01  0.8000E+01
     -8.584  0.2542E-02  0.8000E+01
     -8.512  0.3152E-03  0.8000E+01
     -8.440  0.3080E-04  0.8000E+01
     -8.368  0.2364E-05  0.8000E+01
     -8.296  0.1423E-06  0.8000E+01
     -8.224  0.6703E-08  0.8000E+01
     -8.152  0.2466E-09  0.8000E+01
     -8.080  0.7078E-11  0.8000E+01
     -8.008  0.1581E-12  0.8000E+01
     -7.936  0.2161E-14  0.8000E+01
     -7.865  0.0000E+00  0.8000E+01
     -7.793  0.0000E+00  0.8000E+01
     -7.721  0.0000E+00  0.8000E+01
     -7.649  0.0000E+00  0.8000E+01
     -7.577  0.0000E+00  0.8000E+01
     -7.505  0.0000E+00  0.8000E+01
     -7.433  0.0000E+00  0.8000E+01
     -7.361  0.0000E+00  0.8000E+01
     -7.289  0.0000E+00  0.8000E+01
     -7.217  0.0000E+00  0.8000E+01
     -7.145  0.0000E+00  0.8000E+01
     -7.073  0.0000E+00  0.8000E+01
     -7.002  0.0000E+00  0.8000E+01
     -6.930  0.0000E+00  0.8000E+01
     -6.858  0.0000E+00  0.8000E+01
     -6.786  0.0000E+00  0.8000E+01
     -6.714  0.0000E+00  0.8000E+01
     -6.642  0.0000E+00  0.8000E+01
     -6.570  0.0000E+00  0.8000E+01
     -6.498  0.0000E+00  0.8000E+01
     -6.426  0.0000E+00  0.8000E+01
     -6.354  0.0000E+00  0.8000E+01
     -6.282  0.0000E+00  0.8000E+01
     -6.210  0.0000E+00  0.8000E+01
     -6.139  0.0000E+00  0.8000E+01
     -6.067  0.0000E+00  0.8000E+01
     -5.995  0.0000E+00  0.8000E+01
     -5.923  0.0000E+00  0.8000E+01
     -5.851  0.0000E+00  0.8000E+01
     -5.779  0.0000E+00  0.8000E+01
     -5.707  0.0000E+00  0.8000E+01
     -5.635  0.0000E+00  0.8000E+01
     -5.563  0.0000E+00  0.8000E+01
     -5.491  0.0000E+00  0.8000E+01
     -5.419  0.0000E+00  0.8000E+01
     -5.347  0.0000E+00  0.8000E+01
     -5.276  0.0000E+00  0.8000E+01
     -5.204  0.0000E+00  0.8000E+01
     -5.132  0.0000E+00  0.8000E+01
     -5.060  0.0000E+00  0.8000E+01
     -4.988  0.0000E+00  0.8000E+01
     -4.916  0.0000E+00  0.8000E+01
     -4.844  0.0000E+00  0.8000E+01
     -4.772  0.0000E+00  0.8000E+01
     -4.700  0.0000E+00  0.8000E+01
     -4.628  0.0000E+00  0.8000E+01
     -4.556  0.0000E+00  0.8000E+01
     -4.485  0.0000E+00  0.8000E+01
     -4.413  0.0000E+00  0.8000E+01
     -4.341  0.0000E+00  0.8000E+01
     -4.269  0.0000E+00  0.8000E+01
     -4.197  0.0000E+00  0.8000E+01
     -4.125  0.0000E+00  0.8000E+01
     -4.053  0.0000E+00  0.8000E+01
     -3.981  0.0000E+00  0.8000E+01
     -3.909  0.0000E+00  0.8000E+01
     -3.837  0.0000E+00  0.8000E+01
     -3.765  0.0000E+00  0.8000E+01
     -3.693  0.0000E+00  0.8000E+01
     -3.622  0.0000E+00  0.8000E+01
     -3.550  0.0000E+00  0.8000E+01
     -3.478  0.0000E+00  0.8000E+01
     -3.406  0.0000E+00  0.8000E+01
     -3.334  0.0000E+00  0.8000E+01
     -3.262  0.0000E+00  0.8000E+01
     -3.190  0.0000E+00  0.8000E+01
     -3.118  0.0000E+00  0.8000E+01
     -3.046  0.0000E+00  0.8000E+01
     -2.974  0.0000E+00  0.8000E+01
     -2.902  0.0000E+00  0.8000E+01
     -2.830  0.0000E+00  0.8000E+01
     -2.759  0.0000E+00  0.8000E+01
     -2.687  0.0000E+00  0.8000E+01
     -2.615  0.0000E+00  0.8000E+01
     -2.543  0.0000E+00  0.8000E+01
     -2.471  0.0000E+00  0.8000E+01
     -2.399  0.0000E+00  0.8000E+01
     -2.327  0.0000E+00  0.8000E+01
     -2.255  0.0000E+00  0.8000E+01
     -2.183  0.0000E+00  0.8000E+01
     -2.111  0.0000E+00  0.8000E+01
     -2.039  0.0000E+00  0.8000E+01
     -1.967  0.0000E+00  0.8000E+01
     -1.896  0.0000E+00  0.8000E+01
     -1.824  0.0000E+00  0.8000E+01
     -1.752  0.0000E+00  0.8000E+01
     -1.680  0.0000E+00  0.8000E+01
     -1.608  0.0000E+00  0.8000E+01
     -1.536  0.0000E+00  0.8000E+01
     -1.464  0.6247E-14  0.8000E+01
     -1.392  0.3596E-12  0.8000E+01
     -1.320  0.1619E-10  0.8000E+01
     -1.248  0.5644E-09  0.8000E+01
     -1.176  0.1524E-07  0.8000E+01
     -1.104  0.3187E-06  0.8000E+01
     -1.033  0.5164E-05  0.8000E+01
     -0.961  0.6486E-04  0.8000E+01
     -0.889  0.6314E-03  0.8000E+01
     -0.817  0.4765E-02  0.8000E+01
     -0.745  0.2789E-01  0.8002E+01
     -0.673  0.1266E+00  0.8012E+01
     -0.601  0.4460E+00  0.8044E+01
     -0.529  0.1219E+01  0.8131E+01
     -0.457  0.2584E+01  0.8317E+01
     -0.385  0.4252E+01  0.8623E+01
     -0.313  0.5430E+01  0.9014E+01
     -0.241  0.5382E+01  0.9402E+01
     -0.170  0.4140E+01  0.9700E+01
     -0.098  0.2472E+01  0.9878E+01
     -0.026  0.1146E+01  0.9960E+01
      0.046  0.4151E+00  0.9990E+01
      0.118  0.1365E+00  0.1000E+02
      0.190  0.1317E+00  0.1001E+02
      0.262  0.4205E+00  0.1004E+02
      0.334  0.1290E+01  0.1013E+02
      0.406  0.3200E+01  0.1036E+02
      0.478  0.6423E+01  0.1082E+02
      0.550  0.1049E+02  0.1158E+02
      0.621  0.1400E+02  0.1259E+02
      0.693  0.1525E+02  0.1369E+02
      0.765  0.1348E+02  0.1466E+02
      0.837  0.9589E+01  0.1535E+02
      0.909  0.5450E+01  0.1574E+02
      0.981  0.2456E+01  0.1592E+02
      1.053  0.8722E+00  0.1598E+02
      1.125  0.2431E+00  0.1600E+02
      1.197  0.5301E-01  0.1600E+02
      1.269  0.9023E-02  0.1600E+02
      1.341  0.1197E-02  0.1600E+02
      1.413  0.1236E-03  0.1600E+02
      1.484  0.9925E-05  0.1600E+02
      1.556  0.6194E-06  0.1600E+02
      1.628  0.3003E-07  0.1600E+02
      1.700  0.1130E-08  0.1600E+02
      1.772  0.3300E-10  0.1600E+02
      1.844  0.7481E-12  0.1600E+02
      1.916  0.1219E-13  0.1600E+02
      1.988  0.0000E+00  0.1600E+02
      2.060  0.0000E+00  0.1600E+02
      2.132  0.0000E+00  0.1600E+02
      2.204  0.0000E+00  0.1600E+02
      2.276  0.0000E+00  0.1600E+02
      2.347  0.0000E+00  0.1600E+02
      2.419  0.0000E+00  0.1600E+02
      2.491  0.0000E+00  0.1600E+02
      2.563  0.0000E+00  0.1600E+02
      2.635  0.0000E+00  0.1600E+02
      2.707  0.0000E+00  0.1600E+02
      2.70746552    -18.86648226  301     -8.22319423      1.00000000
    -18.866  0.0000E+00  0.0000E+00
    -18.795  0.0000E+00  0.0000E+00
    -18.723  0.0000E+00  0.0000E+00
    -18.651  0.0000E+00  0.0000E+00
    -18.579  0.0000E+00  0.0000E+00
    -18.507  0.0000E+00  0.0000E+00
    -18.435  0.0000E+00  0.0000E+00
    -18.363  0.0000E+00  0.0000E+00
    -18.291  0.0000E+00  0.0000E+00
    -18.219  0.0000E+00  0.0000E+00
    -18.147  0.0000E+00  0.0000E+00
    -18.075  0.0000E+00  0.0000E+00
    -18.004  0.1235E-14  0.8882E-16
    -17.932  0.6835E-13  0.5004E-14
    -17.860  0.2944E-11  0.2167E-12
    -17.788  0.9822E-10  0.7280E-11
    -17.716  0.2539E-08  0.1898E-09
    -17.644  0.5085E-07  0.3846E-08
    -17.572  0.7893E-06  0.6061E-07
    -17.500  0.9500E-05  0.7438E-06
    -17.428  0.8866E-04  0.7119E-05
    -17.356  0.6417E-03  0.5327E-04
    -17.284  0.3604E-02  0.3124E-03
    -17.212  0.1570E-01  0.1442E-02
    -17.141  0.5309E-01  0.5259E-02
    -17.069  0.1393E+00  0.1528E-01
    -16.997  0.2839E+00  0.3569E-01
    -16.925  0.4490E+00  0.6798E-01
    -16.853  0.5514E+00  0.1076E+00
    -16.781  0.5257E+00  0.1454E+00
    -16.709  0.3892E+00  0.1734E+00
    -16.637  0.2237E+00  0.1895E+00
    -16.565  0.9980E-01  0.1967E+00
    -16.493  0.3457E-01  0.1992E+00
    -16.421  0.9292E-02  0.1998E+00
    -16.350  0.1938E-02  0.2000E+00
    -16.278  0.3137E-03  0.2000E+00
    -16.206  0.3938E-04  0.2000E+00
    -16.134  0.3835E-05  0.2000E+00
    -16.062  0.2895E-06  0.2000E+00
    -15.990  0.1694E-07  0.2000E+00
    -15.918  0.7685E-09  0.2000E+00
    -15.846  0.2701E-10  0.2000E+00
    -15.774  0.7354E-12  0.2000E+00
    -15.702  0.1544E-13  0.2000E+00
    -15.630  0.3088E-15  0.2000E+00
    -15.558  0.0000E+00  0.2000E+00
    -15.487  0.0000E+00  0.2000E+00
    -15.415  0.0000E+00  0.2000E+00
    -15.343  0.0000E+00  0.2000E+00
    -15.271  0.0000E+00  0.2000E+00
    -15.199  0.0000E+00  0.2000E+00
    -15.127  0.0000E+00  0.2000E+00
    -15.055  0.0000E+00  0.2000E+00
    -14.983  0.0000E+00  0.2000E+00
    -14.911  0.0000E+00  0.2000E+00
    -14.839  0.0000E+00  0.2000E+00
    -14.767  0.0000E+00  0.2000E+00
    -14.696  0.0000E+00  0.2000E+00
    -14.624  0.0000E+00  0.2000E+00
    -14.552  0.0000E+00  0.2000E+00
    -14.480  0.0000E+00  0.2000E+00
    -14.408  0.0000E+00  0.2000E+00
    -14.336  0.0000E+00  0.2000E+00
    -14.264  0.0000E+00  0.2000E+00
    -14.192  0.0000E+00  0.2000E+00
    -14.120  0.0000E+00  0.2000E+00
    -14.048  0.0000E+00  0.2000E+00
    -13.976  0.0000E+00  0.2000E+00
    -13.904  0.0000E+00  0.2000E+00
    -13.833  0.0000E+00  0.2000E+00
    -13.761  0.0000E+00  0.2000E+00
    -13.689  0.0000E+00  0.2000E+00
    -13.617  0.0000E+00  0.2000E+00
    -13.545  0.0000E+00  0.2000E+00
    -13.473  0.0000E+00  0.2000E+00
    -13.401  0.0000E+00  0.2000E+00
    -13.329  0.0000E+00  0.2000E+00
    -13.257  0.0000E+00  0.2000E+00
    -13.185  0.0000E+00  0.2000E+00
    -13.113  0.0000E+00  0.2000E+00
    -13.042  0.0000E+00  0.2000E+00
    -12.970  0.0000E+00  0.2000E+00
    -12.898  0.0000E+00  0.2000E+00
    -12.826  0.0000E+00  0.2000E+00
    -12.754  0.0000E+00  0.2000E+00
    -12.682  0.0000E+00  0.2000E+00
    -12.610  0.0000E+00  0.2000E+00
    -12.538  0.0000E+00  0.2000E+00
    -12.466  0.0000E+00  0.2000E+00
    -12.394  0.0000E+00  0.2000E+00
    -12.322  0.0000E+00  0.2000E+00
    -12.250  0.0000E+00  0.2000E+00
    -12.179  0.0000E+00  0.2000E+00
    -12.107  0.0000E+00  0.2000E+00
    -12.035  0.0000E+00  0.2000E+00
    -11.963  0.0000E+00  0.2000E+00
    -11.891  0.0000E+00  0.2000E+00
    -11.819  0.0000E+00  0.2000E+00
    -11.747  0.0000E+00  0.2000E+00
    -11.675  0.0000E+00  0.2000E+00
    -11.603  0.0000E+00  0.2000E+00
    -11.531  0.0000E+00  0.2000E+00
    -11.459  0.0000E+00  0.2000E+00
    -11.388  0.0000E+00  0.2000E+00
    -11.316  0.0000E+00  0.2000E+00
    -11.244  0.0000E+00  0.2000E+00
    -11.172  0.0000E+00  0.2000E+00
    -11.100  0.0000E+00  0.2000E+00
    -11.028  0.0000E+00  0.2000E+00
    -10.956  0.0000E+00  0.2000E+00
    -10.884  0.0000E+00  0.2000E+00
    -10.812  0.0000E+00  0.2000E+00
    -10.740  0.0000E+00  0.2000E+00
    -10.668  0.0000E+00  0.2000E+00
    -10.596  0.0000E+00  0.2000E+00
    -10.525  0.9263E-15  0.2000E+00
    -10.453  0.5044E-13  0.2000E+00
    -10.381  0.2228E-11  0.2000E+00
    -10.309  0.7626E-10  0.2000E+00
    -10.237  0.2026E-08  0.2000E+00
    -10.165  0.4178E-07  0.2000E+00
    -10.093  0.6696E-06  0.2000E+00
    -10.021  0.8349E-05  0.2000E+00
     -9.949  0.8108E-04  0.2000E+00
     -9.877  0.6141E-03  0.2001E+00
     -9.805  0.3635E-02  0.2003E+00
     -9.734  0.1685E-01  0.2015E+00
     -9.662  0.6132E-01  0.2059E+00
     -9.590  0.1759E+00  0.2186E+00
     -9.518  0.3998E+00  0.2473E+00
     -9.446  0.7261E+00  0.2996E+00
     -9.374  0.1067E+01  0.3763E+00
     -9.302  0.1293E+01  0.4693E+00
     -9.230  0.1325E+01  0.5646E+00
     -9.158  0.1175E+01  0.6491E+00
     -9.086  0.9103E+00  0.7146E+00
     -9.014  0.6085E+00  0.7584E+00
     -8.942  0.3421E+00  0.7830E+00
     -8.871  0.1574E+00  0.7943E+00
     -8.799  0.5803E-01  0.7984E+00
     -8.727  0.1692E-01  0.7997E+00
     -8.655  0.3866E-02  0.7999E+00
     -8.583  0.6896E-03  0.8000E+00
     -8.511  0.9572E-04  0.8000E+00
     -8.439  0.1032E-04  0.8000E+00
     -8.367  0.8642E-06  0.8000E+00
     -8.295  0.5611E-07  0.8000E+00
     -8.223  0.2825E-08  0.8000E+00
     -8.151  0.1102E-09  0.8000E+00
     -8.080  0.3333E-11  0.8000E+00
     -8.008  0.7820E-13  0.8000E+00
     -7.936  0.1235E-14  0.8000E+00
     -7.864  0.0000E+00  0.8000E+00
     -7.792  0.0000E+00  0.8000E+00
     -7.720  0.0000E+00  0.8000E+00
     -7.648  0.0000E+00  0.8000E+00
     -7.576  0.0000E+00  0.8000E+00
     -7.504  0.0000E+00  0.8000E+00
     -7.432  0.0000E+00  0.8000E+00
     -7.360  0.0000E+00  0.8000E+00
     -7.288  0.0000E+00  0.8000E+00
     -7.217  0.0000E+00  0.8000E+00
     -7.145  0.0000E+00  0.8000E+00
     -7.073  0.0000E+00  0.8000E+00
     -7.001  0.0000E+00  0.8000E+00
     -6.929  0.0000E+00  0.8000E+00
     -6.857  0.0000E+00  0.8000E+00
     -6.785  0.0000E+00  0.8000E+00
     -6.713  0.0000E+00  0.8000E+00
     -6.641  0.0000E+00  0.8000E+00
     -6.569  0.0000E+00  0.8000E+00
     -6.497  0.0000E+00  0.8000E+00
     -6.426  0.0000E+00  0.8000E+00
     -6.354  0.0000E+00  0.8000E+00
     -6.282  0.0000E+00  0.8000E+00
     -6.210  0.0000E+00  0.8000E+00
     -6.138  0.0000E+00  0.8000E+00
     -6.066  0.0000E+00  0.8000E+00
     -5.994  0.0000E+00  0.8000E+00
     -5.922  0.0000E+00  0.8000E+00
     -5.850  0.0000E+00  0.8000E+00
     -5.778  0.0000E+00  0.8000E+00
     -5.706  0.0000E+00  0.8000E+00
     -5.634  0.0000E+00  0.8000E+00
     -5.563  0.0000E+00  0.8000E+00
     -5.491  0.0000E+00  0.8000E+00
     -5.419  0.0000E+00  0.8000E+00
     -5.347  0.0000E+00  0.8000E+00
     -5.275  0.0000E+00  0.8000E+00
     -5.203  0.0000E+00  0.8000E+00
     -5.131  0.0000E+00  0.8000E+00
     -5.059  0.0000E+00  0.8000E+00
     -4.987  0.0000E+00  0.8000E+00
     -4.915  0.0000E+00  0.8000E+00
     -4.843  0.0000E+00  0.8000E+00
     -4.772  0.0000E+00  0.8000E+00
     -4.700  0.0000E+00  0.8000E+00
     -4.628  0.0000E+00  0.8000E+00
     -4.556  0.0000E+00  0.8000E+00
     -4.484  0.0000E+00  0.8000E+00
     -4.412  0.0000E+00  0.8000E+00
     -4.340  0.0000E+00  0.8000E+00
     -4.268  0.0000E+00  0.8000E+00
     -4.196  0.0000E+00  0.8000E+00
     -4.124  0.0000E+00  0.8000E+00
     -4.052  0.0000E+00  0.8000E+00
     -3.980  0.0000E+00  0.8000E+00
     -3.909  0.0000E+00  0.8000E+00
     -3.837  0.0000E+00  0.8000E+00
     -3.765  0.0000E+00  0.8000E+00
     -3.693  0.0000E+00  0.8000E+00
     -3.621  0.0000E+00  0.8000E+00
     -3.549  0.0000E+00  0.8000E+00
     -3.477  0.0000E+00  0.8000E+00
     -3.405  0.0000E+00  0.8000E+00
     -3.333  0.0000E+00  0.8000E+00
     -3.261  0.0000E+00  0.8000E+00
     -3.189  0.0000E+00  0.8000E+00
     -3.118  0.0000E+00  0.8000E+00
     -3.046  0.0000E+00  0.8000E+00
     -2.974  0.0000E+00  0.8000E+00
     -2.902  0.0000E+00  0.8000E+00
     -2.830  0.0000E+00  0.8000E+00
     -2.758  0.0000E+00  0.8000E+00
     -2.686  0.0000E+00  0.8000E+00
     -2.614  0.0000E+00  0.8000E+00
     -2.542  0.0000E+00  0.8000E+00
     -2.470  0.0000E+00  0.8000E+00
     -2.398  0.0000E+00  0.8000E+00
     -2.326  0.0000E+00  0.8000E+00
     -2.255  0.0000E+00  0.8000E+00
     -2.183  0.0000E+00  0.8000E+00
     -2.111  0.0000E+00  0.8000E+00
     -2.039  0.0000E+00  0.8000E+00
     -1.967  0.0000E+00  0.8000E+00
     -1.895  0.0000E+00  0.8000E+00
     -1.823  0.0000E+00  0.8000E+00
     -1.751  0.0000E+00  0.8000E+00
     -1.679  0.0000E+00  0.8000E+00
     -1.607  0.0000E+00  0.8000E+00
     -1.535  0.0000E+00  0.8000E+00
     -1.463  0.6947E-15  0.8000E+00
     -1.392  0.4002E-13  0.8000E+00
     -1.320  0.1785E-11  0.8000E+00
     -1.248  0.6167E-10  0.8000E+00
     -1.176  0.1651E-08  0.8000E+00
     -1.104  0.3423E-07  0.8000E+00
     -1.032  0.5503E-06  0.8000E+00
     -0.960  0.6858E-05  0.8000E+00
     -0.888  0.6627E-04  0.8000E+00
     -0.816  0.4967E-03  0.8000E+00
     -0.744  0.2888E-02  0.8002E+00
     -0.672  0.1303E-01  0.8012E+00
     -0.601  0.4560E-01  0.8045E+00
     -0.529  0.1239E+00  0.8134E+00
     -0.457  0.2614E+00  0.8322E+00
     -0.385  0.4280E+00  0.8629E+00
     -0.313  0.5441E+00  0.9021E+00
     -0.241  0.5371E+00  0.9407E+00
     -0.169  0.4117E+00  0.9703E+00
     -0.097  0.2450E+00  0.9879E+00
     -0.025  0.1132E+00  0.9961E+00
      0.047  0.4096E-01  0.9990E+00
      0.119  0.1361E-01  0.1000E+01
      0.191  0.1368E-01  0.1001E+01
      0.262  0.4344E-01  0.1004E+01
      0.334  0.1312E+00  0.1014E+01
      0.406  0.3209E+00  0.1037E+01
      0.478  0.6372E+00  0.1082E+01
      0.550  0.1036E+01  0.1157E+01
      0.622  0.1383E+01  0.1256E+01
      0.694  0.1515E+01  0.1365E+01
      0.766  0.1352E+01  0.1463E+01
      0.838  0.9731E+00  0.1532E+01
      0.910  0.5597E+00  0.1573E+01
      0.982  0.2550E+00  0.1591E+01
      1.053  0.9148E-01  0.1598E+01
      1.125  0.2572E-01  0.1600E+01
      1.197  0.5650E-02  0.1600E+01
      1.269  0.9675E-03  0.1600E+01
      1.341  0.1290E-03  0.1600E+01
      1.413  0.1337E-04  0.1600E+01
      1.485  0.1078E-05  0.1600E+01
      1.557  0.6743E-07  0.1600E+01
      1.629  0.3276E-08  0.1600E+01
      1.701  0.1235E-09  0.1600E+01
      1.773  0.3612E-11  0.1600E+01
      1.845  0.8190E-13  0.1600E+01
      1.916  0.1621E-14  0.1600E+01
      1.988  0.0000E+00  0.1600E+01
      2.060  0.0000E+00  0.1600E+01
      2.132  0.0000E+00  0.1600E+01
      2.204  0.0000E+00  0.1600E+01
      2.276  0.0000E+00  0.1600E+01
      2.348  0.0000E+00  0.1600E+01
      2.420  0.0000E+00  0.1600E+01
      2.492  0.0000E+00  0.1600E+01
      2.564  0.0000E+00  0.1600E+01
      2.636  0.0000E+00  0.1600E+01
      2.707  0.0000E+00  0.1600E+01
