    5    5   10    1
  0.1987002E+03  0.9703409E-09  0.1026481E-08  0.9974718E-09  0.5000000E-15
  1.000000000000000E-004
  CAR 
 unknown system                          
      8      4      8
 
  0.2500000E+00  0.2500000E+00  0.2500000E+00  0.2500000E+00
    1      -16.866482   1.000000
    2       -9.381675   1.000000
    3       -9.303417   1.000000
    4       -9.142157   1.000000
    5       -0.316188   0.000000
    6        0.560446   0.000000
    7        0.680985   0.000000
    8        0.706564   0.000000
 
 -0.2500000E+00  0.2500000E+00  0.2500000E+00  0.2500000E+00
    1      -16.866457   1.000000
    2       -9.381694   1.000000
    3       -9.303479   1.000000
    4       -9.142261   1.000000
    5       -0.315976   0.000000
    6        0.553324   0.000000
    7        0.679655   0.000000
    8        0.707466   0.000000
 
  0.2500000E+00 -0.2500000E+00  0.2500000E+00  0.2500000E+00
    1      -16.866435   1.000000
    2       -9.381685   1.000000
    3       -9.303354   1.000000
    4       -9.142230   1.000000
    5       -0.316458   0.000000
    6        0.556397   0.000000
    7        0.684953   0.000000
    8        0.704614   0.000000
 
 -0.2500000E+00 -0.2500000E+00  0.2500000E+00  0.2500000E+00
    1      -16.866454   1.000000
    2       -9.381648   1.000000
    3       -9.303366   1.000000
    4       -9.142197   1.000000
    5       -0.317650   0.000000
    6        0.563889   0.000000
    7        0.687376   0.000000
    8        0.705506   0.000000
