 running on   16 total cores
 distrk:  each k-point on   16 cores,    1 groups
 distr:  one band on    4 cores,    4 groups
 using from now: INCAR     
 vasp.5.4.4.18Apr17-6-g9f103f2a35 (build Nov 25 2021 15:25:00) complex          
  
 POSCAR found type information on POSCAR  H  C 
 POSCAR found :  2 types and       5 ions
 scaLAPACK will be used
 LDA part: xc-table for Pade appr. of Perdew
 POSCAR found type information on POSCAR  H  C 
 POSCAR found :  2 types and       5 ions
 generate k-points for:    2    2    2
 POSCAR, INCAR and KPOINTS ok, starting setup
 FFT: planning ...
 WAVECAR not read
 prediction of wavefunctions initialized - no I/O
 entering main loop
       N       E                     dE             d eps       ncg     rms          rms(c)
DAV:   1     0.118536350236E+02    0.11854E+02   -0.20730E+03    96   0.428E+02
DAV:   2    -0.238637306936E+02   -0.35717E+02   -0.35717E+02    64   0.115E+02
DAV:   3    -0.274276374412E+02   -0.35639E+01   -0.35639E+01    64   0.427E+01
DAV:   4    -0.275619820870E+02   -0.13434E+00   -0.13434E+00   128   0.913E+00
DAV:   5    -0.275620178298E+02   -0.35743E-04   -0.35743E-04    96   0.165E-01    0.876E+00
RMM:   6    -0.246427433308E+02    0.29193E+01   -0.53939E+00    64   0.142E+01    0.431E+00
RMM:   7    -0.241469087546E+02    0.49583E+00   -0.12235E+00    64   0.641E+00    0.229E+00
RMM:   8    -0.240003009551E+02    0.14661E+00   -0.16292E-01    64   0.289E+00    0.226E-01
RMM:   9    -0.239946747722E+02    0.56262E-02   -0.11025E-02    64   0.698E-01    0.195E-01
RMM:  10    -0.239885773606E+02    0.60974E-02   -0.23784E-02    64   0.842E-01    0.275E-01
RMM:  11    -0.239892841078E+02   -0.70675E-03   -0.75752E-03    64   0.545E-01    0.801E-02
RMM:  12    -0.239986699512E+02   -0.93858E-02   -0.32924E-03    64   0.355E-01    0.118E-01
RMM:  13    -0.239992585869E+02   -0.58864E-03   -0.96074E-04    64   0.172E-01    0.445E-02
RMM:  14    -0.240020736679E+02   -0.28151E-02   -0.11088E-03    64   0.205E-01    0.227E-02
RMM:  15    -0.240024009461E+02   -0.32728E-03   -0.45391E-05    64   0.403E-02    0.105E-02
RMM:  16    -0.240025900696E+02   -0.18912E-03   -0.34448E-05    64   0.340E-02    0.217E-03
RMM:  17    -0.240026416856E+02   -0.51616E-04   -0.14700E-05    64   0.211E-02    0.632E-03
RMM:  18    -0.240026458691E+02   -0.41835E-05   -0.89211E-06    64   0.167E-02    0.124E-03
RMM:  19    -0.240026501404E+02   -0.42713E-05   -0.32729E-07    48   0.431E-03    0.817E-04
RMM:  20    -0.240026507980E+02   -0.65757E-06   -0.13606E-07    48   0.230E-03
    1 T=     1. E= -.24002122E+02 F= -.24002651E+02 E0= -.24002651E+02  EK= 0.52920E-03 SP= 0.00E+00 SK= 0.00E+00
 bond charge predicted
       N       E                     dE             d eps       ncg     rms          rms(c)
DAV:   1    -0.240067133806E+02   -0.40632E-02   -0.45788E-03    64   0.655E-01    0.319E-02
RMM:   2    -0.240067110447E+02    0.23359E-05   -0.13132E-04    64   0.100E-01    0.193E-02
RMM:   3    -0.240067082791E+02    0.27656E-05   -0.18596E-05    64   0.335E-02    0.502E-03
RMM:   4    -0.240067082919E+02   -0.12802E-07   -0.74483E-07    48   0.844E-03
    2 T=     9. E= -.24002216E+02 F= -.24006708E+02 E0= -.24006708E+02  EK= 0.44927E-02 SP= 0.00E+00 SK= 0.00E+00
 bond charge predicted
 prediction of wavefunctions
       N       E                     dE             d eps       ncg     rms          rms(c)
DAV:   1    -0.240133613497E+02   -0.66531E-02   -0.36664E-03    64   0.605E-01    0.113E-02
RMM:   2    -0.240133769838E+02   -0.15634E-04   -0.15906E-04    64   0.117E-01    0.348E-03
RMM:   3    -0.240133781247E+02   -0.11409E-05   -0.48831E-06    56   0.202E-02    0.379E-03
RMM:   4    -0.240133782016E+02   -0.76885E-07   -0.55163E-07    48   0.777E-03
    3 T=    21. E= -.24002360E+02 F= -.24013378E+02 E0= -.24013378E+02  EK= 0.11018E-01 SP= 0.00E+00 SK= 0.00E+00
 bond charge predicted
 prediction of wavefunctions
       N       E                     dE             d eps       ncg     rms          rms(c)
DAV:   1    -0.240203572938E+02   -0.69792E-02   -0.12214E-03    64   0.332E-01    0.507E-03
RMM:   2    -0.240203603225E+02   -0.30288E-05   -0.18911E-05    64   0.315E-02    0.402E-03
RMM:   3    -0.240203609175E+02   -0.59496E-06   -0.82621E-07    48   0.826E-03    0.269E-03
RMM:   4    -0.240203620094E+02   -0.10919E-05   -0.84011E-07    48   0.634E-03    0.700E-04
RMM:   5    -0.240203623147E+02   -0.30537E-06   -0.12532E-07    48   0.332E-03
    4 T=    35. E= -.24002507E+02 F= -.24020362E+02 E0= -.24020362E+02  EK= 0.17856E-01 SP= 0.00E+00 SK= 0.00E+00
 bond charge predicted
 prediction of wavefunctions
       N       E                     dE             d eps       ncg     rms          rms(c)
DAV:   1    -0.240253452817E+02   -0.49833E-02   -0.17015E-03    64   0.389E-01    0.740E-03
RMM:   2    -0.240253497194E+02   -0.44377E-05   -0.95642E-06    64   0.213E-02    0.420E-03
RMM:   3    -0.240253553381E+02   -0.56187E-05   -0.48507E-07    48   0.560E-03    0.952E-04
RMM:   4    -0.240253591498E+02   -0.38117E-05   -0.22328E-07    48   0.304E-03    0.358E-04
RMM:   5    -0.240253661591E+02   -0.70093E-05   -0.50326E-07    48   0.348E-03    0.262E-04
RMM:   6    -0.240253675042E+02   -0.13451E-05   -0.60659E-08    40   0.164E-03    0.171E-04
RMM:   7    -0.240253696889E+02   -0.21847E-05   -0.19068E-07    44   0.214E-03    0.108E-04
RMM:   8    -0.240253697719E+02   -0.83061E-07    0.00000E+00    32   0.115E-03
    5 T=    44. E= -.24002598E+02 F= -.24025370E+02 E0= -.24025370E+02  EK= 0.22772E-01 SP= 0.00E+00 SK= 0.00E+00
 bond charge predicted
 prediction of wavefunctions
       N       E                     dE             d eps       ncg     rms          rms(c)
DAV:   1    -0.240269186691E+02   -0.15490E-02   -0.19319E-03    64   0.401E-01    0.285E-03
RMM:   2    -0.240269200340E+02   -0.13649E-05   -0.66551E-06    62   0.256E-02    0.213E-03
RMM:   3    -0.240269206511E+02   -0.61705E-06   -0.28802E-07    48   0.522E-03    0.113E-03
RMM:   4    -0.240269214946E+02   -0.84355E-06   -0.25093E-07    48   0.366E-03
    6 T=    47. E= -.24002611E+02 F= -.24026921E+02 E0= -.24026921E+02  EK= 0.24311E-01 SP= 0.00E+00 SK= 0.00E+00
 bond charge predicted
 prediction of wavefunctions
       N       E                     dE             d eps       ncg     rms          rms(c)
DAV:   1    -0.240247497416E+02    0.21709E-02   -0.19074E-03    64   0.364E-01    0.160E-03
RMM:   2    -0.240247519307E+02   -0.21891E-05   -0.96074E-06    60   0.328E-02    0.161E-03
RMM:   3    -0.240247524741E+02   -0.54343E-06   -0.19969E-07    48   0.436E-03    0.139E-03
RMM:   4    -0.240247551880E+02   -0.27139E-05   -0.49817E-07    48   0.468E-03    0.490E-04
RMM:   5    -0.240247553033E+02   -0.11522E-06   -0.41042E-08    47   0.201E-03
    7 T=    43. E= -.24002547E+02 F= -.24024755E+02 E0= -.24024755E+02  EK= 0.22209E-01 SP= 0.00E+00 SK= 0.00E+00
 bond charge predicted
 prediction of wavefunctions
       N       E                     dE             d eps       ncg     rms          rms(c)
DAV:   1    -0.240197980694E+02    0.49571E-02   -0.15749E-03    80   0.318E-01    0.165E-03
RMM:   2    -0.240198008011E+02   -0.27317E-05   -0.12833E-05    60   0.363E-02    0.202E-03
RMM:   3    -0.240198012343E+02   -0.43325E-06   -0.29088E-07    48   0.479E-03    0.181E-03
RMM:   4    -0.240198039562E+02   -0.27219E-05   -0.42817E-07    48   0.461E-03    0.525E-04
RMM:   5    -0.240198042127E+02   -0.25646E-06   -0.50589E-08    48   0.222E-03
    8 T=    34. E= -.24002434E+02 F= -.24019804E+02 E0= -.24019804E+02  EK= 0.17370E-01 SP= 0.00E+00 SK= 0.00E+00
 bond charge predicted
 prediction of wavefunctions
       N       E                     dE             d eps       ncg     rms          rms(c)
DAV:   1    -0.240138064084E+02    0.59975E-02   -0.10436E-03    64   0.263E-01    0.234E-03
RMM:   2    -0.240138087130E+02   -0.23046E-05   -0.13455E-05    60   0.362E-02    0.168E-03
RMM:   3    -0.240138092465E+02   -0.53349E-06   -0.26270E-07    48   0.458E-03    0.136E-03
RMM:   4    -0.240138108829E+02   -0.16364E-05   -0.21632E-07    48   0.344E-03    0.341E-04
RMM:   5    -0.240138111015E+02   -0.21859E-06   -0.79491E-09    36   0.172E-03
    9 T=    22. E= -.24002309E+02 F= -.24013811E+02 E0= -.24013811E+02  EK= 0.11502E-01 SP= 0.00E+00 SK= 0.00E+00
 bond charge predicted
 prediction of wavefunctions
       N       E                     dE             d eps       ncg     rms          rms(c)
DAV:   1    -0.240087499783E+02    0.50609E-02   -0.50268E-04    64   0.196E-01    0.207E-03
RMM:   2    -0.240087530080E+02   -0.30297E-05   -0.11413E-05    60   0.333E-02    0.210E-03
RMM:   3    -0.240087537803E+02   -0.77228E-06   -0.25636E-07    48   0.449E-03    0.175E-03
RMM:   4    -0.240087571658E+02   -0.33855E-05   -0.60187E-07    48   0.525E-03    0.325E-04
RMM:   5    -0.240087578211E+02   -0.65529E-06   -0.60166E-08    48   0.240E-03
   10 T=    13. E= -.24002201E+02 F= -.24008758E+02 E0= -.24008758E+02  EK= 0.65571E-02 SP= 0.00E+00 SK= 0.00E+00
 bond charge predicted
 prediction of wavefunctions
 wavefunctions rotated
