unknown system                          
           1
     9.703409    0.000000    0.000000
     0.021377   10.264789    0.000000
    -0.017900   -0.052612    9.974563
   H    C 
   4   1
Direct configuration=     1
   0.53827181  0.40673182  0.36052743
   0.39429192  0.47966480  0.43865737
   0.55229315  0.56526454  0.44243494
   0.52764518  0.41619659  0.53907939
   0.50319486  0.46719630  0.44515437
Direct configuration=     2
   0.53828330  0.40676278  0.36053085
   0.39401725  0.47969099  0.43863637
   0.55226749  0.56512659  0.44244576
   0.52766327  0.41623800  0.53906360
   0.50321740  0.46719958  0.44515625
Direct configuration=     3
   0.53830556  0.40682337  0.36053659
   0.39349475  0.47974025  0.43859605
   0.55221949  0.56485985  0.44246806
   0.52769912  0.41631906  0.53903450
   0.50326006  0.46720589  0.44515969
Direct configuration=     4
   0.53833842  0.40691104  0.36054261
   0.39277458  0.47980689  0.43853957
   0.55215659  0.56448329  0.44250098
   0.52775236  0.41643635  0.53899596
   0.50331809  0.46721463  0.44516436
Direct configuration=     5
   0.53838157  0.40702222  0.36054622
   0.39192327  0.47988342  0.43847118
   0.55208934  0.56402399  0.44254330
   0.52782245  0.41658506  0.53895328
   0.50338514  0.46722486  0.44516979
Direct configuration=     6
   0.53843454  0.40715254  0.36054431
   0.39101592  0.47996151  0.43839574
   0.55203067  0.56351552  0.44259346
   0.52790859  0.41675926  0.53891268
   0.50345398  0.46723534  0.44517543
Direct configuration=     7
   0.53849677  0.40729713  0.36053372
   0.39012836  0.48003292  0.43831824
   0.55199497  0.56299561  0.44264968
   0.52800978  0.41695229  0.53888078
   0.50351725  0.46724457  0.44518074
Direct configuration=     8
   0.53856755  0.40745095  0.36051158
   0.38933082  0.48009029  0.43824342
   0.55199675  0.56250313  0.44271003
   0.52812480  0.41715722  0.53886391
   0.50356803  0.46725093  0.44518519
Direct configuration=     9
   0.53864608  0.40760906  0.36047560
   0.38868314  0.48012760  0.43817548
   0.55204917  0.56207481  0.44277256
   0.52825224  0.41736720  0.53886758
   0.50360044  0.46725284  0.44518833
Direct configuration=    10
   0.53873149  0.40776691  0.36042437
   0.38823163  0.48014061  0.43811783
   0.55216247  0.56174162  0.44283545
   0.52839046  0.41757588  0.53889585
   0.50360998  0.46724898  0.44518981
