   5   5   0   0
  0.2070863E+03  0.9992057E-09  0.1020370E-08  0.1015944E-08  0.5000000E-15
  1.000000000000000E-004
  CAR 
 unknown system                          
      2.70862612    -18.98006552  301     -8.35246541      1.00000000
    -18.980  0.0000E+00  0.0000E+00
    -18.908  0.0000E+00  0.0000E+00
    -18.835  0.0000E+00  0.0000E+00
    -18.763  0.0000E+00  0.0000E+00
    -18.691  0.0000E+00  0.0000E+00
    -18.619  0.0000E+00  0.0000E+00
    -18.546  0.0000E+00  0.0000E+00
    -18.474  0.0000E+00  0.0000E+00
    -18.402  0.0000E+00  0.0000E+00
    -18.329  0.0000E+00  0.0000E+00
    -18.257  0.0000E+00  0.0000E+00
    -18.185  0.0000E+00  0.0000E+00
    -18.113  0.1265E-13  0.9104E-15
    -18.040  0.6947E-12  0.5090E-13
    -17.968  0.2993E-10  0.2204E-11
    -17.896  0.9981E-09  0.7403E-10
    -17.823  0.2578E-07  0.1929E-08
    -17.751  0.5160E-06  0.3906E-07
    -17.679  0.8002E-05  0.6148E-06
    -17.606  0.9617E-04  0.7535E-05
    -17.534  0.8961E-03  0.7201E-04
    -17.462  0.6475E-02  0.5379E-03
    -17.390  0.3629E-01  0.3149E-02
    -17.317  0.1578E+00  0.1450E-01
    -17.245  0.5327E+00  0.5282E-01
    -17.173  0.1396E+01  0.1532E+00
    -17.100  0.2839E+01  0.3574E+00
    -17.028  0.4486E+01  0.6801E+00
    -16.956  0.5507E+01  0.1076E+01
    -16.883  0.5251E+01  0.1454E+01
    -16.811  0.3890E+01  0.1733E+01
    -16.739  0.2240E+01  0.1894E+01
    -16.667  0.1002E+01  0.1966E+01
    -16.594  0.3486E+00  0.1992E+01
    -16.522  0.9422E-01  0.1998E+01
    -16.450  0.1980E-01  0.2000E+01
    -16.377  0.3233E-02  0.2000E+01
    -16.305  0.4103E-03  0.2000E+01
    -16.233  0.4048E-04  0.2000E+01
    -16.161  0.3103E-05  0.2000E+01
    -16.088  0.1849E-06  0.2000E+01
    -16.016  0.8564E-08  0.2000E+01
    -15.944  0.3082E-09  0.2000E+01
    -15.871  0.8620E-11  0.2000E+01
    -15.799  0.1878E-12  0.2000E+01
    -15.727  0.2788E-14  0.2000E+01
    -15.654  0.0000E+00  0.2000E+01
    -15.582  0.0000E+00  0.2000E+01
    -15.510  0.0000E+00  0.2000E+01
    -15.438  0.0000E+00  0.2000E+01
    -15.365  0.0000E+00  0.2000E+01
    -15.293  0.0000E+00  0.2000E+01
    -15.221  0.0000E+00  0.2000E+01
    -15.148  0.0000E+00  0.2000E+01
    -15.076  0.0000E+00  0.2000E+01
    -15.004  0.0000E+00  0.2000E+01
    -14.932  0.0000E+00  0.2000E+01
    -14.859  0.0000E+00  0.2000E+01
    -14.787  0.0000E+00  0.2000E+01
    -14.715  0.0000E+00  0.2000E+01
    -14.642  0.0000E+00  0.2000E+01
    -14.570  0.0000E+00  0.2000E+01
    -14.498  0.0000E+00  0.2000E+01
    -14.425  0.0000E+00  0.2000E+01
    -14.353  0.0000E+00  0.2000E+01
    -14.281  0.0000E+00  0.2000E+01
    -14.209  0.0000E+00  0.2000E+01
    -14.136  0.0000E+00  0.2000E+01
    -14.064  0.0000E+00  0.2000E+01
    -13.992  0.0000E+00  0.2000E+01
    -13.919  0.0000E+00  0.2000E+01
    -13.847  0.0000E+00  0.2000E+01
    -13.775  0.0000E+00  0.2000E+01
    -13.702  0.0000E+00  0.2000E+01
    -13.630  0.0000E+00  0.2000E+01
    -13.558  0.0000E+00  0.2000E+01
    -13.486  0.0000E+00  0.2000E+01
    -13.413  0.0000E+00  0.2000E+01
    -13.341  0.0000E+00  0.2000E+01
    -13.269  0.0000E+00  0.2000E+01
    -13.196  0.0000E+00  0.2000E+01
    -13.124  0.0000E+00  0.2000E+01
    -13.052  0.0000E+00  0.2000E+01
    -12.980  0.0000E+00  0.2000E+01
    -12.907  0.0000E+00  0.2000E+01
    -12.835  0.0000E+00  0.2000E+01
    -12.763  0.0000E+00  0.2000E+01
    -12.690  0.0000E+00  0.2000E+01
    -12.618  0.0000E+00  0.2000E+01
    -12.546  0.0000E+00  0.2000E+01
    -12.473  0.0000E+00  0.2000E+01
    -12.401  0.0000E+00  0.2000E+01
    -12.329  0.0000E+00  0.2000E+01
    -12.257  0.0000E+00  0.2000E+01
    -12.184  0.0000E+00  0.2000E+01
    -12.112  0.0000E+00  0.2000E+01
    -12.040  0.0000E+00  0.2000E+01
    -11.967  0.0000E+00  0.2000E+01
    -11.895  0.0000E+00  0.2000E+01
    -11.823  0.0000E+00  0.2000E+01
    -11.751  0.0000E+00  0.2000E+01
    -11.678  0.0000E+00  0.2000E+01
    -11.606  0.0000E+00  0.2000E+01
    -11.534  0.0000E+00  0.2000E+01
    -11.461  0.0000E+00  0.2000E+01
    -11.389  0.0000E+00  0.2000E+01
    -11.317  0.0000E+00  0.2000E+01
    -11.244  0.0000E+00  0.2000E+01
    -11.172  0.0000E+00  0.2000E+01
    -11.100  0.0000E+00  0.2000E+01
    -11.028  0.0000E+00  0.2000E+01
    -10.955  0.0000E+00  0.2000E+01
    -10.883  0.0000E+00  0.2000E+01
    -10.811  0.0000E+00  0.2000E+01
    -10.738  0.0000E+00  0.2000E+01
    -10.666  0.0000E+00  0.2000E+01
    -10.594  0.3407E-14  0.2000E+01
    -10.521  0.1975E-12  0.2000E+01
    -10.449  0.8906E-11  0.2000E+01
    -10.377  0.3130E-09  0.2000E+01
    -10.305  0.8578E-08  0.2000E+01
    -10.232  0.1835E-06  0.2000E+01
    -10.160  0.3069E-05  0.2000E+01
    -10.088  0.4018E-04  0.2000E+01
    -10.015  0.4125E-03  0.2000E+01
     -9.943  0.3327E-02  0.2000E+01
     -9.871  0.2112E-01  0.2002E+01
     -9.799  0.1058E+00  0.2009E+01
     -9.726  0.4194E+00  0.2040E+01
     -9.654  0.1320E+01  0.2134E+01
     -9.582  0.3312E+01  0.2372E+01
     -9.509  0.6652E+01  0.2851E+01
     -9.437  0.1076E+02  0.3624E+01
     -9.365  0.1408E+02  0.4637E+01
     -9.292  0.1501E+02  0.5717E+01
     -9.220  0.1307E+02  0.6657E+01
     -9.148  0.9314E+01  0.7327E+01
     -9.076  0.5422E+01  0.7717E+01
     -9.003  0.2567E+01  0.7901E+01
     -8.931  0.9821E+00  0.7972E+01
     -8.859  0.3018E+00  0.7993E+01
     -8.786  0.7399E-01  0.7999E+01
     -8.714  0.1440E-01  0.8000E+01
     -8.642  0.2214E-02  0.8000E+01
     -8.569  0.2682E-03  0.8000E+01
     -8.497  0.2553E-04  0.8000E+01
     -8.425  0.1905E-05  0.8000E+01
     -8.353  0.1113E-06  0.8000E+01
     -8.280  0.5087E-08  0.8000E+01
     -8.208  0.1816E-09  0.8000E+01
     -8.136  0.5060E-11  0.8000E+01
     -8.063  0.1095E-12  0.8000E+01
     -7.991  0.1861E-14  0.8000E+01
     -7.919  0.0000E+00  0.8000E+01
     -7.847  0.0000E+00  0.8000E+01
     -7.774  0.0000E+00  0.8000E+01
     -7.702  0.0000E+00  0.8000E+01
     -7.630  0.0000E+00  0.8000E+01
     -7.557  0.0000E+00  0.8000E+01
     -7.485  0.0000E+00  0.8000E+01
     -7.413  0.0000E+00  0.8000E+01
     -7.340  0.0000E+00  0.8000E+01
     -7.268  0.0000E+00  0.8000E+01
     -7.196  0.0000E+00  0.8000E+01
     -7.124  0.0000E+00  0.8000E+01
     -7.051  0.0000E+00  0.8000E+01
     -6.979  0.0000E+00  0.8000E+01
     -6.907  0.0000E+00  0.8000E+01
     -6.834  0.0000E+00  0.8000E+01
     -6.762  0.0000E+00  0.8000E+01
     -6.690  0.0000E+00  0.8000E+01
     -6.618  0.0000E+00  0.8000E+01
     -6.545  0.0000E+00  0.8000E+01
     -6.473  0.0000E+00  0.8000E+01
     -6.401  0.0000E+00  0.8000E+01
     -6.328  0.0000E+00  0.8000E+01
     -6.256  0.0000E+00  0.8000E+01
     -6.184  0.0000E+00  0.8000E+01
     -6.111  0.0000E+00  0.8000E+01
     -6.039  0.0000E+00  0.8000E+01
     -5.967  0.0000E+00  0.8000E+01
     -5.895  0.0000E+00  0.8000E+01
     -5.822  0.0000E+00  0.8000E+01
     -5.750  0.0000E+00  0.8000E+01
     -5.678  0.0000E+00  0.8000E+01
     -5.605  0.0000E+00  0.8000E+01
     -5.533  0.0000E+00  0.8000E+01
     -5.461  0.0000E+00  0.8000E+01
     -5.388  0.0000E+00  0.8000E+01
     -5.316  0.0000E+00  0.8000E+01
     -5.244  0.0000E+00  0.8000E+01
     -5.172  0.0000E+00  0.8000E+01
     -5.099  0.0000E+00  0.8000E+01
     -5.027  0.0000E+00  0.8000E+01
     -4.955  0.0000E+00  0.8000E+01
     -4.882  0.0000E+00  0.8000E+01
     -4.810  0.0000E+00  0.8000E+01
     -4.738  0.0000E+00  0.8000E+01
     -4.666  0.0000E+00  0.8000E+01
     -4.593  0.0000E+00  0.8000E+01
     -4.521  0.0000E+00  0.8000E+01
     -4.449  0.0000E+00  0.8000E+01
     -4.376  0.0000E+00  0.8000E+01
     -4.304  0.0000E+00  0.8000E+01
     -4.232  0.0000E+00  0.8000E+01
     -4.159  0.0000E+00  0.8000E+01
     -4.087  0.0000E+00  0.8000E+01
     -4.015  0.0000E+00  0.8000E+01
     -3.943  0.0000E+00  0.8000E+01
     -3.870  0.0000E+00  0.8000E+01
     -3.798  0.0000E+00  0.8000E+01
     -3.726  0.0000E+00  0.8000E+01
     -3.653  0.0000E+00  0.8000E+01
     -3.581  0.0000E+00  0.8000E+01
     -3.509  0.0000E+00  0.8000E+01
     -3.437  0.0000E+00  0.8000E+01
     -3.364  0.0000E+00  0.8000E+01
     -3.292  0.0000E+00  0.8000E+01
     -3.220  0.0000E+00  0.8000E+01
     -3.147  0.0000E+00  0.8000E+01
     -3.075  0.0000E+00  0.8000E+01
     -3.003  0.0000E+00  0.8000E+01
     -2.930  0.0000E+00  0.8000E+01
     -2.858  0.0000E+00  0.8000E+01
     -2.786  0.0000E+00  0.8000E+01
     -2.714  0.0000E+00  0.8000E+01
     -2.641  0.0000E+00  0.8000E+01
     -2.569  0.0000E+00  0.8000E+01
     -2.497  0.0000E+00  0.8000E+01
     -2.424  0.0000E+00  0.8000E+01
     -2.352  0.0000E+00  0.8000E+01
     -2.280  0.0000E+00  0.8000E+01
     -2.207  0.0000E+00  0.8000E+01
     -2.135  0.0000E+00  0.8000E+01
     -2.063  0.0000E+00  0.8000E+01
     -1.991  0.0000E+00  0.8000E+01
     -1.918  0.0000E+00  0.8000E+01
     -1.846  0.0000E+00  0.8000E+01
     -1.774  0.0000E+00  0.8000E+01
     -1.701  0.0000E+00  0.8000E+01
     -1.629  0.0000E+00  0.8000E+01
     -1.557  0.0000E+00  0.8000E+01
     -1.485  0.1188E-13  0.8000E+01
     -1.412  0.6308E-12  0.8000E+01
     -1.340  0.2632E-10  0.8000E+01
     -1.268  0.8545E-09  0.8000E+01
     -1.195  0.2159E-07  0.8000E+01
     -1.123  0.4249E-06  0.8000E+01
     -1.051  0.6513E-05  0.8000E+01
     -0.978  0.7779E-04  0.8000E+01
     -0.906  0.7242E-03  0.8000E+01
     -0.834  0.5258E-02  0.8000E+01
     -0.762  0.2977E-01  0.8003E+01
     -0.689  0.1315E+00  0.8012E+01
     -0.617  0.4535E+00  0.8045E+01
     -0.545  0.1220E+01  0.8132E+01
     -0.472  0.2562E+01  0.8316E+01
     -0.400  0.4198E+01  0.8618E+01
     -0.328  0.5368E+01  0.9004E+01
     -0.255  0.5355E+01  0.9389E+01
     -0.183  0.4166E+01  0.9689E+01
     -0.111  0.2527E+01  0.9871E+01
     -0.039  0.1195E+01  0.9957E+01
      0.034  0.4446E+00  0.9989E+01
      0.106  0.1533E+00  0.1000E+02
      0.178  0.1564E+00  0.1001E+02
      0.251  0.4871E+00  0.1005E+02
      0.323  0.1450E+01  0.1015E+02
      0.395  0.3505E+01  0.1040E+02
      0.467  0.6875E+01  0.1090E+02
      0.540  0.1099E+02  0.1169E+02
      0.612  0.1434E+02  0.1272E+02
      0.684  0.1524E+02  0.1381E+02
      0.757  0.1312E+02  0.1476E+02
      0.829  0.9072E+01  0.1541E+02
      0.901  0.5006E+01  0.1577E+02
      0.974  0.2190E+01  0.1593E+02
      1.046  0.7551E+00  0.1598E+02
      1.118  0.2044E+00  0.1600E+02
      1.190  0.4334E-01  0.1600E+02
      1.263  0.7178E-02  0.1600E+02
      1.335  0.9274E-03  0.1600E+02
      1.407  0.9336E-04  0.1600E+02
      1.480  0.7316E-05  0.1600E+02
      1.552  0.4460E-06  0.1600E+02
      1.624  0.2113E-07  0.1600E+02
      1.696  0.7782E-09  0.1600E+02
      1.769  0.2226E-10  0.1600E+02
      1.841  0.4956E-12  0.1600E+02
      1.913  0.7250E-14  0.1600E+02
      1.986  0.0000E+00  0.1600E+02
      2.058  0.0000E+00  0.1600E+02
      2.130  0.0000E+00  0.1600E+02
      2.203  0.0000E+00  0.1600E+02
      2.275  0.0000E+00  0.1600E+02
      2.347  0.0000E+00  0.1600E+02
      2.419  0.0000E+00  0.1600E+02
      2.492  0.0000E+00  0.1600E+02
      2.564  0.0000E+00  0.1600E+02
      2.636  0.0000E+00  0.1600E+02
      2.709  0.0000E+00  0.1600E+02
      2.68680608    -18.99035889  301     -8.36840693      1.00000000
    -18.990  0.0000E+00  0.0000E+00
    -18.918  0.0000E+00  0.0000E+00
    -18.846  0.0000E+00  0.0000E+00
    -18.774  0.0000E+00  0.0000E+00
    -18.701  0.0000E+00  0.0000E+00
    -18.629  0.0000E+00  0.0000E+00
    -18.557  0.0000E+00  0.0000E+00
    -18.485  0.0000E+00  0.0000E+00
    -18.412  0.0000E+00  0.0000E+00
    -18.340  0.0000E+00  0.0000E+00
    -18.268  0.0000E+00  0.0000E+00
    -18.196  0.0000E+00  0.0000E+00
    -18.123  0.1536E-14  0.1110E-15
    -18.051  0.8673E-13  0.6378E-14
    -17.979  0.3739E-11  0.2765E-12
    -17.907  0.1246E-09  0.9280E-11
    -17.834  0.3210E-08  0.2412E-09
    -17.762  0.6392E-07  0.4860E-08
    -17.690  0.9842E-06  0.7598E-07
    -17.617  0.1172E-04  0.9229E-06
    -17.545  0.1080E-03  0.8725E-05
    -17.473  0.7697E-03  0.6434E-04
    -17.401  0.4246E-02  0.3712E-03
    -17.328  0.1813E-01  0.1681E-02
    -17.256  0.5995E-01  0.6013E-02
    -17.184  0.1535E+00  0.1710E-01
    -17.112  0.3043E+00  0.3909E-01
    -17.039  0.4673E+00  0.7286E-01
    -16.967  0.5558E+00  0.1130E+00
    -16.895  0.5121E+00  0.1500E+00
    -16.823  0.3654E+00  0.1764E+00
    -16.750  0.2020E+00  0.1910E+00
    -16.678  0.8647E-01  0.1973E+00
    -16.606  0.2866E-01  0.1993E+00
    -16.534  0.7357E-02  0.1999E+00
    -16.461  0.1462E-02  0.2000E+00
    -16.389  0.2248E-03  0.2000E+00
    -16.317  0.2675E-04  0.2000E+00
    -16.245  0.2463E-05  0.2000E+00
    -16.172  0.1754E-06  0.2000E+00
    -16.100  0.9657E-08  0.2000E+00
    -16.028  0.4111E-09  0.2000E+00
    -15.956  0.1353E-10  0.2000E+00
    -15.883  0.3441E-12  0.2000E+00
    -15.811  0.6761E-14  0.2000E+00
    -15.739  0.0000E+00  0.2000E+00
    -15.667  0.0000E+00  0.2000E+00
    -15.594  0.0000E+00  0.2000E+00
    -15.522  0.0000E+00  0.2000E+00
    -15.450  0.0000E+00  0.2000E+00
    -15.377  0.0000E+00  0.2000E+00
    -15.305  0.0000E+00  0.2000E+00
    -15.233  0.0000E+00  0.2000E+00
    -15.161  0.0000E+00  0.2000E+00
    -15.088  0.0000E+00  0.2000E+00
    -15.016  0.0000E+00  0.2000E+00
    -14.944  0.0000E+00  0.2000E+00
    -14.872  0.0000E+00  0.2000E+00
    -14.799  0.0000E+00  0.2000E+00
    -14.727  0.0000E+00  0.2000E+00
    -14.655  0.0000E+00  0.2000E+00
    -14.583  0.0000E+00  0.2000E+00
    -14.510  0.0000E+00  0.2000E+00
    -14.438  0.0000E+00  0.2000E+00
    -14.366  0.0000E+00  0.2000E+00
    -14.294  0.0000E+00  0.2000E+00
    -14.221  0.0000E+00  0.2000E+00
    -14.149  0.0000E+00  0.2000E+00
    -14.077  0.0000E+00  0.2000E+00
    -14.005  0.0000E+00  0.2000E+00
    -13.932  0.0000E+00  0.2000E+00
    -13.860  0.0000E+00  0.2000E+00
    -13.788  0.0000E+00  0.2000E+00
    -13.716  0.0000E+00  0.2000E+00
    -13.643  0.0000E+00  0.2000E+00
    -13.571  0.0000E+00  0.2000E+00
    -13.499  0.0000E+00  0.2000E+00
    -13.427  0.0000E+00  0.2000E+00
    -13.354  0.0000E+00  0.2000E+00
    -13.282  0.0000E+00  0.2000E+00
    -13.210  0.0000E+00  0.2000E+00
    -13.138  0.0000E+00  0.2000E+00
    -13.065  0.0000E+00  0.2000E+00
    -12.993  0.0000E+00  0.2000E+00
    -12.921  0.0000E+00  0.2000E+00
    -12.848  0.0000E+00  0.2000E+00
    -12.776  0.0000E+00  0.2000E+00
    -12.704  0.0000E+00  0.2000E+00
    -12.632  0.0000E+00  0.2000E+00
    -12.559  0.0000E+00  0.2000E+00
    -12.487  0.0000E+00  0.2000E+00
    -12.415  0.0000E+00  0.2000E+00
    -12.343  0.0000E+00  0.2000E+00
    -12.270  0.0000E+00  0.2000E+00
    -12.198  0.0000E+00  0.2000E+00
    -12.126  0.0000E+00  0.2000E+00
    -12.054  0.0000E+00  0.2000E+00
    -11.981  0.0000E+00  0.2000E+00
    -11.909  0.0000E+00  0.2000E+00
    -11.837  0.0000E+00  0.2000E+00
    -11.765  0.0000E+00  0.2000E+00
    -11.692  0.0000E+00  0.2000E+00
    -11.620  0.0000E+00  0.2000E+00
    -11.548  0.0000E+00  0.2000E+00
    -11.476  0.0000E+00  0.2000E+00
    -11.403  0.0000E+00  0.2000E+00
    -11.331  0.0000E+00  0.2000E+00
    -11.259  0.0000E+00  0.2000E+00
    -11.187  0.0000E+00  0.2000E+00
    -11.114  0.0000E+00  0.2000E+00
    -11.042  0.0000E+00  0.2000E+00
    -10.970  0.0000E+00  0.2000E+00
    -10.898  0.0000E+00  0.2000E+00
    -10.825  0.0000E+00  0.2000E+00
    -10.753  0.0000E+00  0.2000E+00
    -10.681  0.0000E+00  0.2000E+00
    -10.609  0.0000E+00  0.2000E+00
    -10.536  0.6146E-15  0.2000E+00
    -10.464  0.4060E-13  0.2000E+00
    -10.392  0.1883E-11  0.2000E+00
    -10.319  0.6782E-10  0.2000E+00
    -10.247  0.1893E-08  0.2000E+00
    -10.175  0.4099E-07  0.2000E+00
    -10.103  0.6888E-06  0.2000E+00
    -10.030  0.8994E-05  0.2000E+00
     -9.958  0.9133E-04  0.2000E+00
     -9.886  0.7222E-03  0.2001E+00
     -9.814  0.4452E-02  0.2004E+00
     -9.741  0.2142E-01  0.2019E+00
     -9.669  0.8063E-01  0.2078E+00
     -9.597  0.2377E+00  0.2249E+00
     -9.525  0.5498E+00  0.2647E+00
     -9.452  0.9997E+00  0.3369E+00
     -9.380  0.1431E+01  0.4403E+00
     -9.308  0.1614E+01  0.5569E+00
     -9.236  0.1437E+01  0.6608E+00
     -9.163  0.1010E+01  0.7337E+00
     -9.091  0.5597E+00  0.7742E+00
     -9.019  0.2446E+00  0.7919E+00
     -8.947  0.8421E-01  0.7979E+00
     -8.874  0.2279E-01  0.7996E+00
     -8.802  0.4840E-02  0.7999E+00
     -8.730  0.8052E-03  0.8000E+00
     -8.658  0.1047E-03  0.8000E+00
     -8.585  0.1063E-04  0.8000E+00
     -8.513  0.8404E-06  0.8000E+00
     -8.441  0.5170E-07  0.8000E+00
     -8.369  0.2471E-08  0.8000E+00
     -8.296  0.9165E-10  0.8000E+00
     -8.224  0.2636E-11  0.8000E+00
     -8.152  0.5885E-13  0.8000E+00
     -8.080  0.9219E-15  0.8000E+00
     -8.007  0.0000E+00  0.8000E+00
     -7.935  0.0000E+00  0.8000E+00
     -7.863  0.0000E+00  0.8000E+00
     -7.790  0.0000E+00  0.8000E+00
     -7.718  0.0000E+00  0.8000E+00
     -7.646  0.0000E+00  0.8000E+00
     -7.574  0.0000E+00  0.8000E+00
     -7.501  0.0000E+00  0.8000E+00
     -7.429  0.0000E+00  0.8000E+00
     -7.357  0.0000E+00  0.8000E+00
     -7.285  0.0000E+00  0.8000E+00
     -7.212  0.0000E+00  0.8000E+00
     -7.140  0.0000E+00  0.8000E+00
     -7.068  0.0000E+00  0.8000E+00
     -6.996  0.0000E+00  0.8000E+00
     -6.923  0.0000E+00  0.8000E+00
     -6.851  0.0000E+00  0.8000E+00
     -6.779  0.0000E+00  0.8000E+00
     -6.707  0.0000E+00  0.8000E+00
     -6.634  0.0000E+00  0.8000E+00
     -6.562  0.0000E+00  0.8000E+00
     -6.490  0.0000E+00  0.8000E+00
     -6.418  0.0000E+00  0.8000E+00
     -6.345  0.0000E+00  0.8000E+00
     -6.273  0.0000E+00  0.8000E+00
     -6.201  0.0000E+00  0.8000E+00
     -6.129  0.0000E+00  0.8000E+00
     -6.056  0.0000E+00  0.8000E+00
     -5.984  0.0000E+00  0.8000E+00
     -5.912  0.0000E+00  0.8000E+00
     -5.840  0.0000E+00  0.8000E+00
     -5.767  0.0000E+00  0.8000E+00
     -5.695  0.0000E+00  0.8000E+00
     -5.623  0.0000E+00  0.8000E+00
     -5.551  0.0000E+00  0.8000E+00
     -5.478  0.0000E+00  0.8000E+00
     -5.406  0.0000E+00  0.8000E+00
     -5.334  0.0000E+00  0.8000E+00
     -5.261  0.0000E+00  0.8000E+00
     -5.189  0.0000E+00  0.8000E+00
     -5.117  0.0000E+00  0.8000E+00
     -5.045  0.0000E+00  0.8000E+00
     -4.972  0.0000E+00  0.8000E+00
     -4.900  0.0000E+00  0.8000E+00
     -4.828  0.0000E+00  0.8000E+00
     -4.756  0.0000E+00  0.8000E+00
     -4.683  0.0000E+00  0.8000E+00
     -4.611  0.0000E+00  0.8000E+00
     -4.539  0.0000E+00  0.8000E+00
     -4.467  0.0000E+00  0.8000E+00
     -4.394  0.0000E+00  0.8000E+00
     -4.322  0.0000E+00  0.8000E+00
     -4.250  0.0000E+00  0.8000E+00
     -4.178  0.0000E+00  0.8000E+00
     -4.105  0.0000E+00  0.8000E+00
     -4.033  0.0000E+00  0.8000E+00
     -3.961  0.0000E+00  0.8000E+00
     -3.889  0.0000E+00  0.8000E+00
     -3.816  0.0000E+00  0.8000E+00
     -3.744  0.0000E+00  0.8000E+00
     -3.672  0.0000E+00  0.8000E+00
     -3.600  0.0000E+00  0.8000E+00
     -3.527  0.0000E+00  0.8000E+00
     -3.455  0.0000E+00  0.8000E+00
     -3.383  0.0000E+00  0.8000E+00
     -3.311  0.0000E+00  0.8000E+00
     -3.238  0.0000E+00  0.8000E+00
     -3.166  0.0000E+00  0.8000E+00
     -3.094  0.0000E+00  0.8000E+00
     -3.022  0.0000E+00  0.8000E+00
     -2.949  0.0000E+00  0.8000E+00
     -2.877  0.0000E+00  0.8000E+00
     -2.805  0.0000E+00  0.8000E+00
     -2.732  0.0000E+00  0.8000E+00
     -2.660  0.0000E+00  0.8000E+00
     -2.588  0.0000E+00  0.8000E+00
     -2.516  0.0000E+00  0.8000E+00
     -2.443  0.0000E+00  0.8000E+00
     -2.371  0.0000E+00  0.8000E+00
     -2.299  0.0000E+00  0.8000E+00
     -2.227  0.0000E+00  0.8000E+00
     -2.154  0.0000E+00  0.8000E+00
     -2.082  0.0000E+00  0.8000E+00
     -2.010  0.0000E+00  0.8000E+00
     -1.938  0.0000E+00  0.8000E+00
     -1.865  0.0000E+00  0.8000E+00
     -1.793  0.0000E+00  0.8000E+00
     -1.721  0.0000E+00  0.8000E+00
     -1.649  0.0000E+00  0.8000E+00
     -1.576  0.0000E+00  0.8000E+00
     -1.504  0.0000E+00  0.8000E+00
     -1.432  0.2036E-14  0.8000E+00
     -1.360  0.1094E-12  0.8000E+00
     -1.287  0.4644E-11  0.8000E+00
     -1.215  0.1523E-09  0.8000E+00
     -1.143  0.3861E-08  0.8000E+00
     -1.071  0.7569E-07  0.8000E+00
     -0.998  0.1147E-05  0.8000E+00
     -0.926  0.1345E-04  0.8000E+00
     -0.854  0.1220E-03  0.8000E+00
     -0.782  0.8564E-03  0.8001E+00
     -0.709  0.4653E-02  0.8004E+00
     -0.637  0.1957E-01  0.8018E+00
     -0.565  0.6374E-01  0.8064E+00
     -0.493  0.1608E+00  0.8180E+00
     -0.420  0.3140E+00  0.8407E+00
     -0.348  0.4752E+00  0.8751E+00
     -0.276  0.5569E+00  0.9153E+00
     -0.203  0.5057E+00  0.9519E+00
     -0.131  0.3557E+00  0.9776E+00
     -0.059  0.1938E+00  0.9916E+00
      0.013  0.8205E-01  0.9975E+00
      0.086  0.2842E-01  0.9995E+00
      0.158  0.1541E-01  0.1001E+01
      0.230  0.3622E-01  0.1003E+01
      0.302  0.1119E+00  0.1011E+01
      0.375  0.2861E+00  0.1032E+01
      0.447  0.5917E+00  0.1075E+01
      0.519  0.9953E+00  0.1147E+01
      0.591  0.1366E+01  0.1245E+01
      0.664  0.1529E+01  0.1356E+01
      0.736  0.1386E+01  0.1456E+01
      0.808  0.1009E+01  0.1529E+01
      0.880  0.5850E+00  0.1571E+01
      0.953  0.2681E+00  0.1591E+01
      1.025  0.9653E-01  0.1598E+01
      1.097  0.2718E-01  0.1599E+01
      1.169  0.5968E-02  0.1600E+01
      1.242  0.1019E-02  0.1600E+01
      1.314  0.1353E-03  0.1600E+01
      1.386  0.1393E-04  0.1600E+01
      1.458  0.1112E-05  0.1600E+01
      1.531  0.6883E-07  0.1600E+01
      1.603  0.3299E-08  0.1600E+01
      1.675  0.1225E-09  0.1600E+01
      1.747  0.3519E-11  0.1600E+01
      1.820  0.7805E-13  0.1600E+01
      1.892  0.1460E-14  0.1600E+01
      1.964  0.0000E+00  0.1600E+01
      2.036  0.0000E+00  0.1600E+01
      2.109  0.0000E+00  0.1600E+01
      2.181  0.0000E+00  0.1600E+01
      2.253  0.0000E+00  0.1600E+01
      2.326  0.0000E+00  0.1600E+01
      2.398  0.0000E+00  0.1600E+01
      2.470  0.0000E+00  0.1600E+01
      2.542  0.0000E+00  0.1600E+01
      2.615  0.0000E+00  0.1600E+01
      2.687  0.0000E+00  0.1600E+01
