 vasp.5.4.4.18Apr17-6-g9f103f2a35 (build Nov 25 2021 15:25:00) complex          
  
 executed on             LinuxIFC date 2022.02.21  10:17:17
 running on   16 total cores
 distrk:  each k-point on   16 cores,    1 groups
 distr:  one band on NCORES_PER_BAND=   4 cores,    4 groups


--------------------------------------------------------------------------------------------------------


 INCAR:
 POTCAR:    PAW_PBE H 15Jun2001                   
 POTCAR:    PAW_PBE C 08Apr2002                   
 POTCAR:    PAW_PBE H 15Jun2001                   
   VRHFIN =H: ultrasoft test                                                    
   LEXCH  = PE                                                                  
   EATOM  =    12.4884 eV,    0.9179 Ry                                         
                                                                                
   TITEL  = PAW_PBE H 15Jun2001                                                 
   LULTRA =        F    use ultrasoft PP ?                                      
   IUNSCR =        0    unscreen: 0-lin 1-nonlin 2-no                           
   RPACOR =    0.000    partial core radius                                     
   POMASS =    1.000; ZVAL   =    1.000    mass and valenz                      
   RCORE  =    1.100    outmost cutoff radius                                   
   RWIGS  =    0.700; RWIGS  =    0.370    wigner-seitz radius (au A)           
   ENMAX  =  250.000; ENMIN  =  200.000 eV                                      
   RCLOC  =    0.701    cutoff for local pot                                    
   LCOR   =        T    correct aug charges                                     
   LPAW   =        T    paw PP                                                  
   EAUG   =  400.000                                                            
   RMAX   =    1.123    core radius for proj-oper                               
   RAUG   =    1.200    factor for augmentation sphere                          
   RDEP   =    1.112    radius for radial grids                                 
   RDEPT  =    0.926    core radius for aug-charge                              
                                                                                
   Atomic configuration                                                         
    2 entries                                                                   
     n  l   j            E        occ.                                          
     1  0  0.50        -6.4927   1.0000                                         
     2  1  0.50        -3.4015   0.0000                                         
   Description                                                                  
     l       E           TYP  RCUT    TYP  RCUT                                 
     0     -6.4927494     23  1.100                                             
     0      6.8029130     23  1.100                                             
     1     -4.0817478     23  1.100                                             
  local pseudopotential read in
  atomic valenz-charges read in
  non local Contribution for L=           0  read in
    real space projection operators read in
  non local Contribution for L=           0  read in
    real space projection operators read in
  non local Contribution for L=           1  read in
    real space projection operators read in
    PAW grid and wavefunctions read in
 
   number of l-projection  operators is LMAX  =           3
   number of lm-projection operators is LMMAX =           5
 
 POTCAR:    PAW_PBE C 08Apr2002                   
   VRHFIN =C: s2p2                                                              
   LEXCH  = PE                                                                  
   EATOM  =   147.1560 eV,   10.8157 Ry                                         
                                                                                
   TITEL  = PAW_PBE C 08Apr2002                                                 
   LULTRA =        F    use ultrasoft PP ?                                      
   IUNSCR =        1    unscreen: 0-lin 1-nonlin 2-no                           
   RPACOR =    1.200    partial core radius                                     
   POMASS =   12.011; ZVAL   =    4.000    mass and valenz                      
   RCORE  =    1.500    outmost cutoff radius                                   
   RWIGS  =    1.630; RWIGS  =    0.863    wigner-seitz radius (au A)           
   ENMAX  =  400.000; ENMIN  =  300.000 eV                                      
   ICORE  =        2    local potential                                         
   LCOR   =        T    correct aug charges                                     
   LPAW   =        T    paw PP                                                  
   EAUG   =  644.873                                                            
   DEXC   =    0.000                                                            
   RMAX   =    1.529    core radius for proj-oper                               
   RAUG   =    1.300    factor for augmentation sphere                          
   RDEP   =    1.501    radius for radial grids                                 
   RDEPT  =    1.300    core radius for aug-charge                              
                                                                                
   Atomic configuration                                                         
    4 entries                                                                   
     n  l   j            E        occ.                                          
     1  0  0.50      -273.3789   2.0000                                         
     2  0  0.50       -13.7508   2.0000                                         
     2  1  0.50        -5.2854   2.0000                                         
     3  2  1.50        -5.4423   0.0000                                         
   Description                                                                  
     l       E           TYP  RCUT    TYP  RCUT                                 
     0    -13.7508458     23  1.200                                             
     0     -8.2022199     23  1.200                                             
     1     -5.2854383     23  1.500                                             
     1     34.0145650     23  1.500                                             
     2     -5.4423304      7  1.500                                             
  local pseudopotential read in
  partial core-charges read in
  partial kinetic energy density read in
  atomic valenz-charges read in
  non local Contribution for L=           0  read in
    real space projection operators read in
  non local Contribution for L=           0  read in
    real space projection operators read in
  non local Contribution for L=           1  read in
    real space projection operators read in
  non local Contribution for L=           1  read in
    real space projection operators read in
    PAW grid and wavefunctions read in
 
   number of l-projection  operators is LMAX  =           4
   number of lm-projection operators is LMMAX =           8
 
  PAW_PBE H 15Jun2001                   :
 energy of atom  1       EATOM=  -12.4884
 kinetic energy error for atom=    0.0098 (will be added to EATOM!!)
  PAW_PBE C 08Apr2002                   :
 energy of atom  2       EATOM= -147.1560
 kinetic energy error for atom=    0.0288 (will be added to EATOM!!)
 
 
 POSCAR:  H  C                                   
  positions in cartesian coordinates
  No initial velocities read in
 exchange correlation table for  LEXCH =        8
   RHO(1)=    0.500       N(1)  =     2000
   RHO(2)=  100.500       N(2)  =     4000

 VTST: version 3.2, (02/03/18)

 CHAIN: initializing optimizer
 
 OPT: Using VASP Dynamics algorithm
 CHAIN: Read ICHAIN            0
 
 POSCAR:  H  C                                   
  positions in cartesian coordinates
  No initial velocities read in
 


--------------------------------------------------------------------------------------------------------


 ion  position               nearest neighbor table
   1  0.538  0.407  0.361-   5 1.12
   2  0.394  0.480  0.439-   5 1.10
   3  0.552  0.565  0.443-   5 1.10
   4  0.529  0.416  0.539-   5 1.12
   5  0.503  0.467  0.445-   2 1.10   3 1.10   1 1.12   4 1.12
 

IMPORTANT INFORMATION: All symmetrisations will be switched off!
NOSYMM: (Re-)initialisation of all symmetry stuff for point group C_1.

 
 

Automatic generation of k-mesh.
 generate k-points for:    2    2    2
Space group operators:
 irot       det(A)        alpha          n_x          n_y          n_z        tau_x        tau_y        tau_z
    1     1.000000     0.000000     1.000000     0.000000     0.000000     0.000000     0.000000     0.000000
 
 Subroutine IBZKPT returns following result:
 ===========================================
 
 Found      4 irreducible k-points:
 
 Following reciprocal coordinates:
            Coordinates               Weight
  0.250000  0.250000  0.250000      2.000000
 -0.250000  0.250000  0.250000      2.000000
  0.250000 -0.250000  0.250000      2.000000
 -0.250000 -0.250000  0.250000      2.000000
 
 Following cartesian coordinates:
            Coordinates               Weight
  0.025020  0.025036  0.024046      2.000000
 -0.025020  0.023977  0.024838      2.000000
  0.025020 -0.023977  0.024385      2.000000
 -0.025020 -0.025036  0.025176      2.000000
 


--------------------------------------------------------------------------------------------------------




 Dimension of arrays:
   k-points           NKPTS =      4   k-points in BZ     NKDIM =      4   number of bands    NBANDS=      8
   number of dos      NEDOS =    301   number of ions     NIONS =      5
   non local maximal  LDIM  =      4   non local SUM 2l+1 LMDIM =      8
   total plane-waves  NPLWV = 343000
   max r-space proj   IRMAX =      1   max aug-charges    IRDMAX=   4108
   dimension x,y,z NGX =    70 NGY =   70 NGZ =   70
   dimension x,y,z NGXF=   140 NGYF=  140 NGZF=  140
   support grid    NGXF=   140 NGYF=  140 NGZF=  140
   ions per type =               4   1
   NGX,Y,Z   is equivalent  to a cutoff of  11.65, 11.40, 11.45 a.u.
   NGXF,Y,Z  is equivalent  to a cutoff of  23.29, 22.81, 22.91 a.u.

 SYSTEM =  unknown system                          
 POSCAR =   H  C                                   

 Startparameter for this run:
   NWRITE =      2    write-flag & timer
   PREC   = a         normal or accurate (medium, high low for compatibility)
   ISTART =      0    job   : 0-new  1-cont  2-samecut
   ICHARG =      2    charge: 1-file 2-atom 10-const
   ISPIN  =      1    spin polarized calculation?
   LNONCOLLINEAR =      F non collinear calculations
   LSORBIT =      F    spin-orbit coupling
   INIWAV =      1    electr: 0-lowe 1-rand  2-diag
   LASPH  =      F    aspherical Exc in radial PAW
   METAGGA=      F    non-selfconsistent MetaGGA calc.

 Electronic Relaxation 1
   ENCUT  =  400.0 eV  29.40 Ry    5.42 a.u.  16.29 16.64 16.57*2*pi/ulx,y,z
   ENINI  =  400.0     initial cutoff
   ENAUG  =  644.9 eV  augmentation charge cutoff
   NELM   =    120;   NELMIN=  4; NELMDL= -5     # of ELM steps 
   EDIFF  = 0.1E-05   stopping-criterion for ELM
   LREAL  =      F    real-space projection
   NLSPLINE    = F    spline interpolate recip. space projectors
   LCOMPAT=      F    compatible to vasp.4.4
   GGA_COMPAT  = T    GGA compatible to vasp.4.4-vasp.4.6
   LMAXPAW     = -100 max onsite density
   LMAXMIX     =    2 max onsite mixed and CHGCAR
   VOSKOWN=      0    Vosko Wilk Nusair interpolation
   ROPT   =    0.00000   0.00000
 Ionic relaxation
   EDIFFG = 0.1E-04   stopping-criterion for IOM
   NSW    =     10    number of steps for IOM
   NBLOCK =      1;   KBLOCK =     10    inner block; outer block 
   IBRION =      0    ionic relax: 0-MD 1-quasi-New 2-CG
   NFREE  =      0    steps in history (QN), initial steepest desc. (CG)
   ISIF   =      2    stress and relaxation
   IWAVPR =     12    prediction:  0-non 1-charg 2-wave 3-comb
   ISYM   =      0    0-nonsym 1-usesym 2-fastsym
   LCORR  =      T    Harris-Foulkes like correction to forces

   POTIM  = 0.5000    time-step for ionic-motion
   TEIN   =    0.0    initial temperature
   TEBEG  =    0.0;   TEEND  =   0.0 temperature during run
   SMASS  =  -3.00    Nose mass-parameter (am)
   estimated Nose-frequenzy (Omega)   =  0.10E-29 period in steps =****** mass=  -0.228E-26a.u.
   SCALEE = 1.0000    scale energy and forces
   NPACO  =    256;   APACO  = 16.0  distance and # of slots for P.C.
   PSTRESS=    0.0 pullay stress

  Mass of Ions in am
   POMASS =   1.00 12.01
  Ionic Valenz
   ZVAL   =   1.00  4.00
  Atomic Wigner-Seitz radii
   RWIGS  =  -1.00 -1.00
  virtual crystal weights 
   VCA    =   1.00  1.00
   NELECT =       8.0000    total number of electrons
   NUPDOWN=      -1.0000    fix difference up-down

 DOS related values:
   EMIN   =  10.00;   EMAX   =-10.00  energy-range for DOS
   EFERMI =   0.00
   ISMEAR =     0;   SIGMA  =   0.20  broadening in eV -4-tet -1-fermi 0-gaus

 Electronic relaxation 2 (details)
   IALGO  =     68    algorithm
   LDIAG  =      T    sub-space diagonalisation (order eigenvalues)
   LSUBROT=      F    optimize rotation matrix (better conditioning)
   TURBO    =      0    0=normal 1=particle mesh
   IRESTART =      0    0=no restart 2=restart with 2 vectors
   NREBOOT  =      0    no. of reboots
   NMIN     =      0    reboot dimension
   EREF     =   0.00    reference energy to select bands
   IMIX   =      4    mixing-type and parameters
     AMIX     =   0.40;   BMIX     =  1.00
     AMIX_MAG =   1.60;   BMIX_MAG =  1.00
     AMIN     =   0.10
     WC   =   100.;   INIMIX=   1;  MIXPRE=   1;  MAXMIX= -45

 Intra band minimization:
   WEIMIN = 0.0010     energy-eigenvalue tresh-hold
   EBREAK =  0.31E-07  absolut break condition
   DEPER  =   0.30     relativ break condition  

   TIME   =   0.40     timestep for ELM

  volume/ion in A,a.u.               =     207.09      1397.49
  Fermi-wavevector in a.u.,A,eV,Ry     =   0.323642  0.611594  1.425127  0.104744
  Thomas-Fermi vector in A             =   1.213071
 
 Write flags
   LWAVE        =      F    write WAVECAR
   LDOWNSAMPLE  =      F    k-point downsampling of WAVECAR
   LCHARG       =      F    write CHGCAR
   LVTOT        =      F    write LOCPOT, total local potential
   LVHAR        =      F    write LOCPOT, Hartree potential only
   LELF         =      F    write electronic localiz. function (ELF)
   LORBIT       =      0    0 simple, 1 ext, 2 COOP (PROOUT), +10 PAW based schemes


 Dipole corrections
   LMONO  =      F    monopole corrections only (constant potential shift)
   LDIPOL =      F    correct potential (dipole corrections)
   IDIPOL =      0    1-x, 2-y, 3-z, 4-all directions 
   EPSILON=  1.0000000 bulk dielectric constant

 Exchange correlation treatment:
   GGA     =    --    GGA type
   LEXCH   =     8    internal setting for exchange type
   VOSKOWN=      0    Vosko Wilk Nusair interpolation
   LHFCALC =     F    Hartree Fock is set to
   LHFONE  =     F    Hartree Fock one center treatment
   AEXX    =    0.0000 exact exchange contribution

 Linear response parameters
   LEPSILON=     F    determine dielectric tensor
   LRPA    =     F    only Hartree local field effects (RPA)
   LNABLA  =     F    use nabla operator in PAW spheres
   LVEL    =     F    velocity operator in full k-point grid
   LINTERFAST=   F  fast interpolation
   KINTER  =     0    interpolate to denser k-point grid
   CSHIFT  =0.1000    complex shift for real part using Kramers Kronig
   OMEGAMAX=  -1.0    maximum frequency
   DEG_THRESHOLD= 0.2000000E-02 threshold for treating states as degnerate
   RTIME   =   -0.100 relaxation time in fs
  (WPLASMAI=    0.000 imaginary part of plasma frequency in eV, 0.658/RTIME)
   DFIELD  = 0.0000000 0.0000000 0.0000000 field for delta impulse in time
 
 Orbital magnetization related:
   ORBITALMAG=     F  switch on orbital magnetization
   LCHIMAG   =     F  perturbation theory with respect to B field
   DQ        =  0.001000  dq finite difference perturbation B field
   LLRAUG    =     F  two centre corrections for induced B field



--------------------------------------------------------------------------------------------------------


 molecular dynamics for ions
   using a microcanonical ensemble
 charge density and potential will be updated during run
 non-spin polarized calculation
 RMM-DIIS sequential band-by-band and
  variant of blocked Davidson during initial phase
 perform sub-space diagonalisation
    before iterative eigenvector-optimisation
 modified Broyden-mixing scheme, WC =      100.0
 initial mixing is a Kerker type mixing with AMIX =  0.4000 and BMIX =      1.0000
 Hartree-type preconditioning will be used
 using additional bands            4
 reciprocal scheme for non local part
 use partial core corrections
 calculate Harris-corrections to forces 
   (improved forces if not selfconsistent)
 use gradient corrections 
 use of overlap-Matrix (Vanderbilt PP)
 Gauss-broadening in eV      SIGMA  =   0.20


--------------------------------------------------------------------------------------------------------


  energy-cutoff  :      400.00
  volume of cell :     1035.43
      direct lattice vectors                 reciprocal lattice vectors
     9.992056493  0.000000000  0.000000000     0.100079498  0.002118395 -0.001583152
    -0.215934604 10.201413798  0.000000000     0.000000000  0.098025629 -0.000676244
     0.159204753  0.070076130 10.157951483     0.000000000  0.000000000  0.098445046

  length of vectors
     9.992056493 10.203698899 10.159440691     0.100114434  0.098027961  0.098445046


 
 k-points in units of 2pi/SCALE and weight: read from INCAR                         
   0.02501987  0.02503601  0.02404641       0.250
  -0.02501987  0.02397681  0.02483799       0.250
   0.02501987 -0.02397681  0.02438453       0.250
  -0.02501987 -0.02503601  0.02517611       0.250
 
 k-points in reciprocal lattice and weights: read from INCAR                         
   0.25000000  0.25000000  0.25000000       0.250
  -0.25000000  0.25000000  0.25000000       0.250
   0.25000000 -0.25000000  0.25000000       0.250
  -0.25000000 -0.25000000  0.25000000       0.250
 
 position of ions in fractional coordinates (direct lattice) 
   0.53808418  0.40678793  0.36057718
   0.39431646  0.48029420  0.43895737
   0.55207083  0.56540718  0.44269107
   0.52879696  0.41575497  0.53910899
   0.50324467  0.46722787  0.44521499
 
 position of ions in cartesian coordinates  (Angst):
   5.34613352  4.17507981  3.66272545
   3.90620429  4.93044033  4.45890772
   5.46471050  5.79897471  4.49683446
   5.27982194  4.27906713  5.47624301
   4.99843889  4.79758380  4.52247223
 


--------------------------------------------------------------------------------------------------------


 k-point  1 :   0.2500 0.2500 0.2500  plane waves:   18796
 k-point  2 :  -0.2500 0.2500 0.2500  plane waves:   18793
 k-point  3 :   0.2500-0.2500 0.2500  plane waves:   18789
 k-point  4 :  -0.2500-0.2500 0.2500  plane waves:   18823

 maximum and minimum number of plane-waves per node :      4716     4680

 maximum number of plane-waves:     18823
 maximum index in each direction: 
   IXMAX=   16   IYMAX=   16   IZMAX=   16
   IXMIN=  -16   IYMIN=  -16   IZMIN=  -16


 parallel 3D FFT for wavefunctions:
    minimum data exchange during FFTs selected (reduces bandwidth)
 parallel 3D FFT for charge:
    minimum data exchange during FFTs selected (reduces bandwidth)


 total amount of memory used by VASP MPI-rank0    55507. kBytes
=======================================================================

   base      :      30000. kBytes
   nonl-proj :       2791. kBytes
   fftplans  :       8578. kBytes
   grid      :      13527. kBytes
   one-center:          6. kBytes
   wavefun   :        605. kBytes
 
     INWAV:  cpu time    0.0000: real time    0.0000
 Broyden mixing: mesh for mixing (old mesh)
   NGX = 33   NGY = 33   NGZ = 33
  (NGX  =140   NGY  =140   NGZ  =140)
  gives a total of  35937 points

 initial charge density was supplied:
 charge density of overlapping atoms calculated
 number of electron       8.0000000 magnetization 
 keeping initial charge density in first step


--------------------------------------------------------------------------------------------------------


 Maximum index for augmentation-charges          179 (set IRDMAX)


--------------------------------------------------------------------------------------------------------


 First call to EWALD:  gamma=   0.175
 Maximum number of real-space cells 3x 3x 3
 Maximum number of reciprocal cells 3x 3x 3

    FEWALD:  cpu time    0.0027: real time    0.0027


--------------------------------------- Iteration      1(   1)  ---------------------------------------


    POTLOK:  cpu time    0.1715: real time    0.1805
    SETDIJ:  cpu time    0.0032: real time    0.0041
     EDDAV:  cpu time    0.2108: real time    0.2329
       DOS:  cpu time    0.0008: real time    0.0008
    --------------------------------------------
      LOOP:  cpu time    0.3864: real time    0.4184

 eigenvalue-minimisations  :    96
 total energy-change (2. order) : 0.1111439E+02  (-0.1951501E+03)
 number of electron       8.0000000 magnetization 
 augmentation part        8.0000000 magnetization 

 Free energy of the ion-electron system (eV)
  ---------------------------------------------------
  alpha Z        PSCENC =         0.23396119
  Ewald energy   TEWEN  =       126.86331835
  -Hartree energ DENC   =      -243.67159159
  -exchange      EXHF   =         0.00000000
  -V(xc)+E(xc)   XCENC  =        21.92962146
  PAW double counting   =       117.05815612     -117.66307307
  entropy T*S    EENTRO =        -0.00000000
  eigenvalues    EBANDS =       -90.67775293
  atomic energy  EATOM  =       197.04175453
  Solvation  Ediel_sol  =         0.00000000
  ---------------------------------------------------
  free energy    TOTEN  =        11.11439406 eV

  energy without entropy =       11.11439406  energy(sigma->0) =       11.11439406


--------------------------------------------------------------------------------------------------------




--------------------------------------- Iteration      1(   2)  ---------------------------------------


     EDDAV:  cpu time    0.1540: real time    0.1540
       DOS:  cpu time    0.0002: real time    0.0002
    --------------------------------------------
      LOOP:  cpu time    0.1542: real time    0.1542

 eigenvalue-minimisations  :    64
 total energy-change (2. order) :-0.3430750E+02  (-0.3430750E+02)
 number of electron       8.0000000 magnetization 
 augmentation part        8.0000000 magnetization 

 Free energy of the ion-electron system (eV)
  ---------------------------------------------------
  alpha Z        PSCENC =         0.23396119
  Ewald energy   TEWEN  =       126.86331835
  -Hartree energ DENC   =      -243.67159159
  -exchange      EXHF   =         0.00000000
  -V(xc)+E(xc)   XCENC  =        21.92962146
  PAW double counting   =       117.05815612     -117.66307307
  entropy T*S    EENTRO =        -0.00000000
  eigenvalues    EBANDS =      -124.98524937
  atomic energy  EATOM  =       197.04175453
  Solvation  Ediel_sol  =         0.00000000
  ---------------------------------------------------
  free energy    TOTEN  =       -23.19310237 eV

  energy without entropy =      -23.19310237  energy(sigma->0) =      -23.19310237


--------------------------------------------------------------------------------------------------------




--------------------------------------- Iteration      1(   3)  ---------------------------------------


     EDDAV:  cpu time    0.1535: real time    0.1535
       DOS:  cpu time    0.0002: real time    0.0002
    --------------------------------------------
      LOOP:  cpu time    0.1537: real time    0.1537

 eigenvalue-minimisations  :    64
 total energy-change (2. order) :-0.3977794E+01  (-0.3977794E+01)
 number of electron       8.0000000 magnetization 
 augmentation part        8.0000000 magnetization 

 Free energy of the ion-electron system (eV)
  ---------------------------------------------------
  alpha Z        PSCENC =         0.23396119
  Ewald energy   TEWEN  =       126.86331835
  -Hartree energ DENC   =      -243.67159159
  -exchange      EXHF   =         0.00000000
  -V(xc)+E(xc)   XCENC  =        21.92962146
  PAW double counting   =       117.05815612     -117.66307307
  entropy T*S    EENTRO =        -0.00000000
  eigenvalues    EBANDS =      -128.96304335
  atomic energy  EATOM  =       197.04175453
  Solvation  Ediel_sol  =         0.00000000
  ---------------------------------------------------
  free energy    TOTEN  =       -27.17089636 eV

  energy without entropy =      -27.17089636  energy(sigma->0) =      -27.17089636


--------------------------------------------------------------------------------------------------------




--------------------------------------- Iteration      1(   4)  ---------------------------------------


     EDDAV:  cpu time    0.2544: real time    0.2544
       DOS:  cpu time    0.0003: real time    0.0003
    --------------------------------------------
      LOOP:  cpu time    0.2546: real time    0.2547

 eigenvalue-minimisations  :   128
 total energy-change (2. order) :-0.1687709E+00  (-0.1687709E+00)
 number of electron       8.0000000 magnetization 
 augmentation part        8.0000000 magnetization 

 Free energy of the ion-electron system (eV)
  ---------------------------------------------------
  alpha Z        PSCENC =         0.23396119
  Ewald energy   TEWEN  =       126.86331835
  -Hartree energ DENC   =      -243.67159159
  -exchange      EXHF   =         0.00000000
  -V(xc)+E(xc)   XCENC  =        21.92962146
  PAW double counting   =       117.05815612     -117.66307307
  entropy T*S    EENTRO =        -0.00000000
  eigenvalues    EBANDS =      -129.13181426
  atomic energy  EATOM  =       197.04175453
  Solvation  Ediel_sol  =         0.00000000
  ---------------------------------------------------
  free energy    TOTEN  =       -27.33966726 eV

  energy without entropy =      -27.33966726  energy(sigma->0) =      -27.33966726


--------------------------------------------------------------------------------------------------------




--------------------------------------- Iteration      1(   5)  ---------------------------------------


     EDDAV:  cpu time    0.1912: real time    0.1912
       DOS:  cpu time    0.0002: real time    0.0002
    CHARGE:  cpu time    0.0234: real time    0.0234
    MIXING:  cpu time    0.0044: real time    0.0044
    --------------------------------------------
      LOOP:  cpu time    0.2193: real time    0.2193

 eigenvalue-minimisations  :    88
 total energy-change (2. order) :-0.6067201E-04  (-0.6067215E-04)
 number of electron       8.0000002 magnetization 
 augmentation part        0.2199877 magnetization 

 Broyden mixing:
  rms(total) = 0.84551E+00    rms(broyden)= 0.84530E+00
  rms(prec ) = 0.11975E+01
  weight for this iteration     100.00

 Free energy of the ion-electron system (eV)
  ---------------------------------------------------
  alpha Z        PSCENC =         0.23396119
  Ewald energy   TEWEN  =       126.86331835
  -Hartree energ DENC   =      -243.67159159
  -exchange      EXHF   =         0.00000000
  -V(xc)+E(xc)   XCENC  =        21.92962146
  PAW double counting   =       117.05815612     -117.66307307
  entropy T*S    EENTRO =        -0.00000000
  eigenvalues    EBANDS =      -129.13187493
  atomic energy  EATOM  =       197.04175453
  Solvation  Ediel_sol  =         0.00000000
  ---------------------------------------------------
  free energy    TOTEN  =       -27.33972794 eV

  energy without entropy =      -27.33972794  energy(sigma->0) =      -27.33972794


--------------------------------------------------------------------------------------------------------




--------------------------------------- Iteration      1(   6)  ---------------------------------------


    POTLOK:  cpu time    0.1651: real time    0.1651
    SETDIJ:  cpu time    0.0016: real time    0.0016
    EDDIAG:  cpu time    0.0434: real time    0.0524
  RMM-DIIS:  cpu time    0.1661: real time    0.1661
    ORTHCH:  cpu time    0.0015: real time    0.0015
       DOS:  cpu time    0.0002: real time    0.0002
    CHARGE:  cpu time    0.0207: real time    0.0207
    MIXING:  cpu time    0.0050: real time    0.0068
    --------------------------------------------
      LOOP:  cpu time    0.4036: real time    0.4145

 eigenvalue-minimisations  :    64
 total energy-change (2. order) : 0.2726958E+01  (-0.5002194E+00)
 number of electron       8.0000001 magnetization 
 augmentation part        0.1939312 magnetization 

 Broyden mixing:
  rms(total) = 0.41820E+00    rms(broyden)= 0.41811E+00
  rms(prec ) = 0.54116E+00
  weight for this iteration     100.00

 eigenvalues of (default mixing * dielectric matrix)
  average eigenvalue GAMMA=   1.2945
  1.2945

 Free energy of the ion-electron system (eV)
  ---------------------------------------------------
  alpha Z        PSCENC =         0.23396119
  Ewald energy   TEWEN  =       126.86331835
  -Hartree energ DENC   =      -262.82603719
  -exchange      EXHF   =         0.00000000
  -V(xc)+E(xc)   XCENC  =        23.09267312
  PAW double counting   =       233.60260655     -234.37442841
  entropy T*S    EENTRO =        -0.00000000
  eigenvalues    EBANDS =      -108.24661830
  atomic energy  EATOM  =       197.04175453
  Solvation  Ediel_sol  =         0.00000000
  ---------------------------------------------------
  free energy    TOTEN  =       -24.61277016 eV

  energy without entropy =      -24.61277016  energy(sigma->0) =      -24.61277016


--------------------------------------------------------------------------------------------------------




--------------------------------------- Iteration      1(   7)  ---------------------------------------


    POTLOK:  cpu time    0.1557: real time    0.1558
    SETDIJ:  cpu time    0.0018: real time    0.0018
    EDDIAG:  cpu time    0.0391: real time    0.0391
  RMM-DIIS:  cpu time    0.1609: real time    0.1609
    ORTHCH:  cpu time    0.0016: real time    0.0016
       DOS:  cpu time    0.0002: real time    0.0002
    CHARGE:  cpu time    0.0189: real time    0.0189
    MIXING:  cpu time    0.0047: real time    0.0047
    --------------------------------------------
      LOOP:  cpu time    0.3830: real time    0.3831

 eigenvalue-minimisations  :    64
 total energy-change (2. order) : 0.4621733E+00  (-0.1073400E+00)
 number of electron       8.0000001 magnetization 
 augmentation part        0.1840324 magnetization 

 Broyden mixing:
  rms(total) = 0.22365E+00    rms(broyden)= 0.22359E+00
  rms(prec ) = 0.27089E+00
  weight for this iteration     100.00

 eigenvalues of (default mixing * dielectric matrix)
  average eigenvalue GAMMA=   1.8382
  1.4396  2.2367

 Free energy of the ion-electron system (eV)
  ---------------------------------------------------
  alpha Z        PSCENC =         0.23396119
  Ewald energy   TEWEN  =       126.86331835
  -Hartree energ DENC   =      -273.94532981
  -exchange      EXHF   =         0.00000000
  -V(xc)+E(xc)   XCENC  =        23.91458019
  PAW double counting   =       352.02497771     -352.83164902
  entropy T*S    EENTRO =        -0.00000000
  eigenvalues    EBANDS =       -97.45221002
  atomic energy  EATOM  =       197.04175453
  Solvation  Ediel_sol  =         0.00000000
  ---------------------------------------------------
  free energy    TOTEN  =       -24.15059688 eV

  energy without entropy =      -24.15059688  energy(sigma->0) =      -24.15059688


--------------------------------------------------------------------------------------------------------




--------------------------------------- Iteration      1(   8)  ---------------------------------------


    POTLOK:  cpu time    0.1511: real time    0.1511
    SETDIJ:  cpu time    0.0018: real time    0.0018
    EDDIAG:  cpu time    0.0386: real time    0.0386
  RMM-DIIS:  cpu time    0.1603: real time    0.1603
    ORTHCH:  cpu time    0.0015: real time    0.0015
       DOS:  cpu time    0.0002: real time    0.0002
    CHARGE:  cpu time    0.0189: real time    0.0189
    MIXING:  cpu time    0.0047: real time    0.0047
    --------------------------------------------
      LOOP:  cpu time    0.3770: real time    0.3770

 eigenvalue-minimisations  :    64
 total energy-change (2. order) : 0.1437607E+00  (-0.1625155E-01)
 number of electron       8.0000001 magnetization 
 augmentation part        0.1826984 magnetization 

 Broyden mixing:
  rms(total) = 0.22912E-01    rms(broyden)= 0.22889E-01
  rms(prec ) = 0.52132E-01
  weight for this iteration     100.00

 eigenvalues of (default mixing * dielectric matrix)
  average eigenvalue GAMMA=   1.5391
  2.2483  0.9795  1.3896

 Free energy of the ion-electron system (eV)
  ---------------------------------------------------
  alpha Z        PSCENC =         0.23396119
  Ewald energy   TEWEN  =       126.86331835
  -Hartree energ DENC   =      -279.33114845
  -exchange      EXHF   =         0.00000000
  -V(xc)+E(xc)   XCENC  =        24.44876514
  PAW double counting   =       455.04322163     -455.81861186
  entropy T*S    EENTRO =        -0.00000000
  eigenvalues    EBANDS =       -92.48809674
  atomic energy  EATOM  =       197.04175453
  Solvation  Ediel_sol  =         0.00000000
  ---------------------------------------------------
  free energy    TOTEN  =       -24.00683620 eV

  energy without entropy =      -24.00683620  energy(sigma->0) =      -24.00683620


--------------------------------------------------------------------------------------------------------




--------------------------------------- Iteration      1(   9)  ---------------------------------------


    POTLOK:  cpu time    0.1501: real time    0.1501
    SETDIJ:  cpu time    0.0016: real time    0.0016
    EDDIAG:  cpu time    0.0381: real time    0.0381
  RMM-DIIS:  cpu time    0.1587: real time    0.1587
    ORTHCH:  cpu time    0.0014: real time    0.0014
       DOS:  cpu time    0.0002: real time    0.0002
    CHARGE:  cpu time    0.0186: real time    0.0186
    MIXING:  cpu time    0.0051: real time    0.0074
    --------------------------------------------
      LOOP:  cpu time    0.3738: real time    0.3761

 eigenvalue-minimisations  :    64
 total energy-change (2. order) : 0.5546300E-02  (-0.1074506E-02)
 number of electron       8.0000001 magnetization 
 augmentation part        0.1821540 magnetization 

 Broyden mixing:
  rms(total) = 0.19212E-01    rms(broyden)= 0.19209E-01
  rms(prec ) = 0.39765E-01
  weight for this iteration     100.00

 eigenvalues of (default mixing * dielectric matrix)
  average eigenvalue GAMMA=   2.0814
  1.0034  1.3577  2.9823  2.9823

 Free energy of the ion-electron system (eV)
  ---------------------------------------------------
  alpha Z        PSCENC =         0.23396119
  Ewald energy   TEWEN  =       126.86331835
  -Hartree energ DENC   =      -280.55911826
  -exchange      EXHF   =         0.00000000
  -V(xc)+E(xc)   XCENC  =        24.51539379
  PAW double counting   =       457.56837753     -458.34656187
  entropy T*S    EENTRO =        -0.00000000
  eigenvalues    EBANDS =       -91.31841516
  atomic energy  EATOM  =       197.04175453
  Solvation  Ediel_sol  =         0.00000000
  ---------------------------------------------------
  free energy    TOTEN  =       -24.00128990 eV

  energy without entropy =      -24.00128990  energy(sigma->0) =      -24.00128990


--------------------------------------------------------------------------------------------------------




--------------------------------------- Iteration      1(  10)  ---------------------------------------


    POTLOK:  cpu time    0.1430: real time    0.1431
    SETDIJ:  cpu time    0.0017: real time    0.0017
    EDDIAG:  cpu time    0.0374: real time    0.0374
  RMM-DIIS:  cpu time    0.1635: real time    0.1635
    ORTHCH:  cpu time    0.0017: real time    0.0017
       DOS:  cpu time    0.0002: real time    0.0002
    CHARGE:  cpu time    0.0190: real time    0.0190
    MIXING:  cpu time    0.0049: real time    0.0049
    --------------------------------------------
      LOOP:  cpu time    0.3714: real time    0.3715

 eigenvalue-minimisations  :    64
 total energy-change (2. order) : 0.6399636E-02  (-0.2461358E-02)
 number of electron       8.0000001 magnetization 
 augmentation part        0.1811233 magnetization 

 Broyden mixing:
  rms(total) = 0.27145E-01    rms(broyden)= 0.27144E-01
  rms(prec ) = 0.34849E-01
  weight for this iteration     100.00

 eigenvalues of (default mixing * dielectric matrix)
  average eigenvalue GAMMA=   1.7888
  3.0781  2.3998  0.9851  1.2404  1.2404

 Free energy of the ion-electron system (eV)
  ---------------------------------------------------
  alpha Z        PSCENC =         0.23396119
  Ewald energy   TEWEN  =       126.86331835
  -Hartree energ DENC   =      -282.73170679
  -exchange      EXHF   =         0.00000000
  -V(xc)+E(xc)   XCENC  =        24.58601067
  PAW double counting   =       442.55687101     -443.33847007
  entropy T*S    EENTRO =        -0.00000000
  eigenvalues    EBANDS =       -89.20662915
  atomic energy  EATOM  =       197.04175453
  Solvation  Ediel_sol  =         0.00000000
  ---------------------------------------------------
  free energy    TOTEN  =       -23.99489027 eV

  energy without entropy =      -23.99489027  energy(sigma->0) =      -23.99489027


--------------------------------------------------------------------------------------------------------




--------------------------------------- Iteration      1(  11)  ---------------------------------------


    POTLOK:  cpu time    0.1429: real time    0.1429
    SETDIJ:  cpu time    0.0016: real time    0.0016
    EDDIAG:  cpu time    0.0373: real time    0.0373
  RMM-DIIS:  cpu time    0.1542: real time    0.1542
    ORTHCH:  cpu time    0.0018: real time    0.0018
       DOS:  cpu time    0.0002: real time    0.0002
    CHARGE:  cpu time    0.0190: real time    0.0190
    MIXING:  cpu time    0.0051: real time    0.0051
    --------------------------------------------
      LOOP:  cpu time    0.3621: real time    0.3621

 eigenvalue-minimisations  :    64
 total energy-change (2. order) :-0.9167615E-03  (-0.9248121E-03)
 number of electron       8.0000001 magnetization 
 augmentation part        0.1815220 magnetization 

 Broyden mixing:
  rms(total) = 0.97366E-02    rms(broyden)= 0.97333E-02
  rms(prec ) = 0.15288E-01
  weight for this iteration     100.00

 eigenvalues of (default mixing * dielectric matrix)
  average eigenvalue GAMMA=   2.2875
  4.9210  3.0828  2.4270  1.2529  1.0207  1.0207

 Free energy of the ion-electron system (eV)
  ---------------------------------------------------
  alpha Z        PSCENC =         0.23396119
  Ewald energy   TEWEN  =       126.86331835
  -Hartree energ DENC   =      -282.61846526
  -exchange      EXHF   =         0.00000000
  -V(xc)+E(xc)   XCENC  =        24.60019544
  PAW double counting   =       451.39528779     -452.16907799
  entropy T*S    EENTRO =        -0.00000000
  eigenvalues    EBANDS =       -89.34278108
  atomic energy  EATOM  =       197.04175453
  Solvation  Ediel_sol  =         0.00000000
  ---------------------------------------------------
  free energy    TOTEN  =       -23.99580703 eV

  energy without entropy =      -23.99580703  energy(sigma->0) =      -23.99580703


--------------------------------------------------------------------------------------------------------




--------------------------------------- Iteration      1(  12)  ---------------------------------------


    POTLOK:  cpu time    0.1364: real time    0.1364
    SETDIJ:  cpu time    0.0017: real time    0.0017
    EDDIAG:  cpu time    0.0377: real time    0.0377
  RMM-DIIS:  cpu time    0.1583: real time    0.1584
    ORTHCH:  cpu time    0.0016: real time    0.0016
       DOS:  cpu time    0.0002: real time    0.0002
    CHARGE:  cpu time    0.0189: real time    0.0189
    MIXING:  cpu time    0.0053: real time    0.0053
    --------------------------------------------
      LOOP:  cpu time    0.3600: real time    0.3601

 eigenvalue-minimisations  :    64
 total energy-change (2. order) :-0.9207508E-02  (-0.2882006E-03)
 number of electron       8.0000001 magnetization 
 augmentation part        0.1816982 magnetization 

 Broyden mixing:
  rms(total) = 0.11844E-01    rms(broyden)= 0.11843E-01
  rms(prec ) = 0.15568E-01
  weight for this iteration     100.00

 eigenvalues of (default mixing * dielectric matrix)
  average eigenvalue GAMMA=   2.0217
  4.8561  2.9530  2.4232  1.2035  1.0179  1.0179  0.6799

 Free energy of the ion-electron system (eV)
  ---------------------------------------------------
  alpha Z        PSCENC =         0.23396119
  Ewald energy   TEWEN  =       126.86331835
  -Hartree energ DENC   =      -282.84123334
  -exchange      EXHF   =         0.00000000
  -V(xc)+E(xc)   XCENC  =        24.59179873
  PAW double counting   =       448.06047569     -448.83376825
  entropy T*S    EENTRO =        -0.00000000
  eigenvalues    EBANDS =       -89.12132144
  atomic energy  EATOM  =       197.04175453
  Solvation  Ediel_sol  =         0.00000000
  ---------------------------------------------------
  free energy    TOTEN  =       -24.00501454 eV

  energy without entropy =      -24.00501454  energy(sigma->0) =      -24.00501454


--------------------------------------------------------------------------------------------------------




--------------------------------------- Iteration      1(  13)  ---------------------------------------


    POTLOK:  cpu time    0.1355: real time    0.1355
    SETDIJ:  cpu time    0.0016: real time    0.0016
    EDDIAG:  cpu time    0.0372: real time    0.0372
  RMM-DIIS:  cpu time    0.1570: real time    0.1570
    ORTHCH:  cpu time    0.0016: real time    0.0016
       DOS:  cpu time    0.0002: real time    0.0002
    CHARGE:  cpu time    0.0189: real time    0.0189
    MIXING:  cpu time    0.0055: real time    0.0055
    --------------------------------------------
      LOOP:  cpu time    0.3574: real time    0.3575

 eigenvalue-minimisations  :    64
 total energy-change (2. order) :-0.5877816E-03  (-0.1055571E-03)
 number of electron       8.0000001 magnetization 
 augmentation part        0.1814490 magnetization 

 Broyden mixing:
  rms(total) = 0.42350E-02    rms(broyden)= 0.42347E-02
  rms(prec ) = 0.59920E-02
  weight for this iteration     100.00

 eigenvalues of (default mixing * dielectric matrix)
  average eigenvalue GAMMA=   2.4805
  6.3090  4.3186  2.4840  2.4474  1.2050  1.2050  0.9954  0.8799

 Free energy of the ion-electron system (eV)
  ---------------------------------------------------
  alpha Z        PSCENC =         0.23396119
  Ewald energy   TEWEN  =       126.86331835
  -Hartree energ DENC   =      -283.01782981
  -exchange      EXHF   =         0.00000000
  -V(xc)+E(xc)   XCENC  =        24.59648738
  PAW double counting   =       447.84619859     -448.62182021
  entropy T*S    EENTRO =        -0.00000000
  eigenvalues    EBANDS =       -88.94767233
  atomic energy  EATOM  =       197.04175453
  Solvation  Ediel_sol  =         0.00000000
  ---------------------------------------------------
  free energy    TOTEN  =       -24.00560232 eV

  energy without entropy =      -24.00560232  energy(sigma->0) =      -24.00560232


--------------------------------------------------------------------------------------------------------




--------------------------------------- Iteration      1(  14)  ---------------------------------------


    POTLOK:  cpu time    0.1353: real time    0.1353
    SETDIJ:  cpu time    0.0016: real time    0.0016
    EDDIAG:  cpu time    0.0383: real time    0.0383
  RMM-DIIS:  cpu time    0.1564: real time    0.1564
    ORTHCH:  cpu time    0.0016: real time    0.0016
       DOS:  cpu time    0.0002: real time    0.0002
    CHARGE:  cpu time    0.0191: real time    0.0191
    MIXING:  cpu time    0.0055: real time    0.0055
    --------------------------------------------
      LOOP:  cpu time    0.3581: real time    0.3581

 eigenvalue-minimisations  :    64
 total energy-change (2. order) :-0.2874075E-02  (-0.1255742E-03)
 number of electron       8.0000001 magnetization 
 augmentation part        0.1813374 magnetization 

 Broyden mixing:
  rms(total) = 0.30658E-02    rms(broyden)= 0.30643E-02
  rms(prec ) = 0.39657E-02
  weight for this iteration     100.00

 eigenvalues of (default mixing * dielectric matrix)
  average eigenvalue GAMMA=   2.3392
  6.5257  4.1144  2.6213  2.3776  1.1622  1.1622  1.1716  0.9590  0.9590

 Free energy of the ion-electron system (eV)
  ---------------------------------------------------
  alpha Z        PSCENC =         0.23396119
  Ewald energy   TEWEN  =       126.86331835
  -Hartree energ DENC   =      -283.00947797
  -exchange      EXHF   =         0.00000000
  -V(xc)+E(xc)   XCENC  =        24.58608233
  PAW double counting   =       447.18480157     -447.96161505
  entropy T*S    EENTRO =        -0.00000000
  eigenvalues    EBANDS =       -88.94730135
  atomic energy  EATOM  =       197.04175453
  Solvation  Ediel_sol  =         0.00000000
  ---------------------------------------------------
  free energy    TOTEN  =       -24.00847639 eV

  energy without entropy =      -24.00847639  energy(sigma->0) =      -24.00847639


--------------------------------------------------------------------------------------------------------




--------------------------------------- Iteration      1(  15)  ---------------------------------------


    POTLOK:  cpu time    0.1333: real time    0.1333
    SETDIJ:  cpu time    0.0016: real time    0.0016
    EDDIAG:  cpu time    0.0365: real time    0.0365
  RMM-DIIS:  cpu time    0.1574: real time    0.1574
    ORTHCH:  cpu time    0.0016: real time    0.0016
       DOS:  cpu time    0.0002: real time    0.0002
    CHARGE:  cpu time    0.0188: real time    0.0188
    MIXING:  cpu time    0.0057: real time    0.0057
    --------------------------------------------
      LOOP:  cpu time    0.3552: real time    0.3552

 eigenvalue-minimisations  :    64
 total energy-change (2. order) :-0.2110212E-03  (-0.3886836E-05)
 number of electron       8.0000001 magnetization 
 augmentation part        0.1812891 magnetization 

 Broyden mixing:
  rms(total) = 0.21696E-02    rms(broyden)= 0.21695E-02
  rms(prec ) = 0.28617E-02
  weight for this iteration     100.00

 eigenvalues of (default mixing * dielectric matrix)
  average eigenvalue GAMMA=   2.5658
  7.6573  4.8612  2.9703  2.6285  2.2131  1.2378  1.2378  0.9967  0.9439  0.9116

 Free energy of the ion-electron system (eV)
  ---------------------------------------------------
  alpha Z        PSCENC =         0.23396119
  Ewald energy   TEWEN  =       126.86331835
  -Hartree energ DENC   =      -283.02462536
  -exchange      EXHF   =         0.00000000
  -V(xc)+E(xc)   XCENC  =        24.58773903
  PAW double counting   =       447.38858668     -448.16498106
  entropy T*S    EENTRO =        -0.00000000
  eigenvalues    EBANDS =       -88.93444078
  atomic energy  EATOM  =       197.04175453
  Solvation  Ediel_sol  =         0.00000000
  ---------------------------------------------------
  free energy    TOTEN  =       -24.00868741 eV

  energy without entropy =      -24.00868741  energy(sigma->0) =      -24.00868741


--------------------------------------------------------------------------------------------------------




--------------------------------------- Iteration      1(  16)  ---------------------------------------


    POTLOK:  cpu time    0.1354: real time    0.1354
    SETDIJ:  cpu time    0.0016: real time    0.0016
    EDDIAG:  cpu time    0.0372: real time    0.0373
  RMM-DIIS:  cpu time    0.1572: real time    0.1572
    ORTHCH:  cpu time    0.0015: real time    0.0015
       DOS:  cpu time    0.0002: real time    0.0002
    CHARGE:  cpu time    0.0191: real time    0.0191
    MIXING:  cpu time    0.0059: real time    0.0059
    --------------------------------------------
      LOOP:  cpu time    0.3581: real time    0.3581

 eigenvalue-minimisations  :    64
 total energy-change (2. order) :-0.2177983E-03  (-0.1868427E-04)
 number of electron       8.0000001 magnetization 
 augmentation part        0.1813644 magnetization 

 Broyden mixing:
  rms(total) = 0.11067E-02    rms(broyden)= 0.11061E-02
  rms(prec ) = 0.14585E-02
  weight for this iteration     100.00

 eigenvalues of (default mixing * dielectric matrix)
  average eigenvalue GAMMA=   2.5191
  7.9451  4.9446  3.4981  2.4560  2.2956  1.2652  1.2652  0.9282  0.9282  1.0534
  1.1303

 Free energy of the ion-electron system (eV)
  ---------------------------------------------------
  alpha Z        PSCENC =         0.23396119
  Ewald energy   TEWEN  =       126.86331835
  -Hartree energ DENC   =      -282.96741254
  -exchange      EXHF   =         0.00000000
  -V(xc)+E(xc)   XCENC  =        24.58594323
  PAW double counting   =       447.44875483     -448.22434742
  entropy T*S    EENTRO =        -0.00000000
  eigenvalues    EBANDS =       -88.99087740
  atomic energy  EATOM  =       197.04175453
  Solvation  Ediel_sol  =         0.00000000
  ---------------------------------------------------
  free energy    TOTEN  =       -24.00890521 eV

  energy without entropy =      -24.00890521  energy(sigma->0) =      -24.00890521


--------------------------------------------------------------------------------------------------------




--------------------------------------- Iteration      1(  17)  ---------------------------------------


    POTLOK:  cpu time    0.1356: real time    0.1356
    SETDIJ:  cpu time    0.0017: real time    0.0017
    EDDIAG:  cpu time    0.0369: real time    0.0369
  RMM-DIIS:  cpu time    0.1554: real time    0.1554
    ORTHCH:  cpu time    0.0014: real time    0.0014
       DOS:  cpu time    0.0002: real time    0.0002
    CHARGE:  cpu time    0.0190: real time    0.0190
    MIXING:  cpu time    0.0060: real time    0.0060
    --------------------------------------------
      LOOP:  cpu time    0.3562: real time    0.3562

 eigenvalue-minimisations  :    64
 total energy-change (2. order) :-0.2610594E-04  (-0.2169921E-05)
 number of electron       8.0000001 magnetization 
 augmentation part        0.1813380 magnetization 

 Broyden mixing:
  rms(total) = 0.14901E-03    rms(broyden)= 0.14899E-03
  rms(prec ) = 0.22442E-03
  weight for this iteration     100.00

 eigenvalues of (default mixing * dielectric matrix)
  average eigenvalue GAMMA=   2.6193
  8.5352  5.3271  3.9598  2.6974  2.4577  1.8853  1.3016  1.3016  1.1213  1.0062
  0.9208  0.9180

 Free energy of the ion-electron system (eV)
  ---------------------------------------------------
  alpha Z        PSCENC =         0.23396119
  Ewald energy   TEWEN  =       126.86331835
  -Hartree energ DENC   =      -283.00788068
  -exchange      EXHF   =         0.00000000
  -V(xc)+E(xc)   XCENC  =        24.58769584
  PAW double counting   =       447.42746991     -448.20341728
  entropy T*S    EENTRO =        -0.00000000
  eigenvalues    EBANDS =       -88.95183318
  atomic energy  EATOM  =       197.04175453
  Solvation  Ediel_sol  =         0.00000000
  ---------------------------------------------------
  free energy    TOTEN  =       -24.00893132 eV

  energy without entropy =      -24.00893132  energy(sigma->0) =      -24.00893132


--------------------------------------------------------------------------------------------------------




--------------------------------------- Iteration      1(  18)  ---------------------------------------


    POTLOK:  cpu time    0.1388: real time    0.1389
    SETDIJ:  cpu time    0.0016: real time    0.0016
    EDDIAG:  cpu time    0.0367: real time    0.0367
  RMM-DIIS:  cpu time    0.1257: real time    0.1257
    ORTHCH:  cpu time    0.0015: real time    0.0015
       DOS:  cpu time    0.0002: real time    0.0002
    CHARGE:  cpu time    0.0188: real time    0.0188
    MIXING:  cpu time    0.0063: real time    0.0063
    --------------------------------------------
      LOOP:  cpu time    0.3297: real time    0.3298

 eigenvalue-minimisations  :    48
 total energy-change (2. order) :-0.1461756E-04  (-0.1380273E-06)
 number of electron       8.0000001 magnetization 
 augmentation part        0.1813335 magnetization 

 Broyden mixing:
  rms(total) = 0.97393E-04    rms(broyden)= 0.97336E-04
  rms(prec ) = 0.14220E-03
  weight for this iteration     100.00

 eigenvalues of (default mixing * dielectric matrix)
  average eigenvalue GAMMA=   2.5797
  8.5751  5.4599  3.8315  3.0662  2.4485  2.2644  1.2838  1.2838  1.2801  0.9007
  0.9891  0.9891  1.1638

 Free energy of the ion-electron system (eV)
  ---------------------------------------------------
  alpha Z        PSCENC =         0.23396119
  Ewald energy   TEWEN  =       126.86331835
  -Hartree energ DENC   =      -283.00124239
  -exchange      EXHF   =         0.00000000
  -V(xc)+E(xc)   XCENC  =        24.58711597
  PAW double counting   =       447.36613299     -448.14207900
  entropy T*S    EENTRO =        -0.00000000
  eigenvalues    EBANDS =       -88.95790758
  atomic energy  EATOM  =       197.04175453
  Solvation  Ediel_sol  =         0.00000000
  ---------------------------------------------------
  free energy    TOTEN  =       -24.00894594 eV

  energy without entropy =      -24.00894594  energy(sigma->0) =      -24.00894594


--------------------------------------------------------------------------------------------------------




--------------------------------------- Iteration      1(  19)  ---------------------------------------


    POTLOK:  cpu time    0.1410: real time    0.1410
    SETDIJ:  cpu time    0.0017: real time    0.0017
    EDDIAG:  cpu time    0.0365: real time    0.0365
  RMM-DIIS:  cpu time    0.1256: real time    0.1256
    ORTHCH:  cpu time    0.0015: real time    0.0015
       DOS:  cpu time    0.0002: real time    0.0002
    CHARGE:  cpu time    0.0189: real time    0.0189
    MIXING:  cpu time    0.0065: real time    0.0065
    --------------------------------------------
      LOOP:  cpu time    0.3320: real time    0.3320

 eigenvalue-minimisations  :    48
 total energy-change (2. order) :-0.2561241E-05  (-0.2994942E-07)
 number of electron       8.0000001 magnetization 
 augmentation part        0.1813341 magnetization 

 Broyden mixing:
  rms(total) = 0.31294E-04    rms(broyden)= 0.31279E-04
  rms(prec ) = 0.42777E-04
  weight for this iteration     100.00

 eigenvalues of (default mixing * dielectric matrix)
  average eigenvalue GAMMA=   2.5737
  8.6328  5.6144  3.9454  3.4752  2.5567  2.4507  1.8883  1.2877  1.2877  1.0955
  0.8954  0.9932  0.9541  0.9541

 Free energy of the ion-electron system (eV)
  ---------------------------------------------------
  alpha Z        PSCENC =         0.23396119
  Ewald energy   TEWEN  =       126.86331835
  -Hartree energ DENC   =      -282.99578669
  -exchange      EXHF   =         0.00000000
  -V(xc)+E(xc)   XCENC  =        24.58678228
  PAW double counting   =       447.34750770     -448.12341070
  entropy T*S    EENTRO =        -0.00000000
  eigenvalues    EBANDS =       -88.96307516
  atomic energy  EATOM  =       197.04175453
  Solvation  Ediel_sol  =         0.00000000
  ---------------------------------------------------
  free energy    TOTEN  =       -24.00894850 eV

  energy without entropy =      -24.00894850  energy(sigma->0) =      -24.00894850


--------------------------------------------------------------------------------------------------------




--------------------------------------- Iteration      1(  20)  ---------------------------------------


    POTLOK:  cpu time    0.1418: real time    0.1418
    SETDIJ:  cpu time    0.0016: real time    0.0016
    EDDIAG:  cpu time    0.0374: real time    0.0374
  RMM-DIIS:  cpu time    0.1147: real time    0.1147
    ORTHCH:  cpu time    0.0014: real time    0.0014
       DOS:  cpu time    0.0002: real time    0.0002
    CHARGE:  cpu time    0.0188: real time    0.0188
    MIXING:  cpu time    0.0067: real time    0.0067
    --------------------------------------------
      LOOP:  cpu time    0.3226: real time    0.3226

 eigenvalue-minimisations  :    38
 total energy-change (2. order) :-0.1312599E-05  (-0.3337938E-08)
 number of electron       8.0000001 magnetization 
 augmentation part        0.1813349 magnetization 

 Broyden mixing:
  rms(total) = 0.19270E-04    rms(broyden)= 0.19268E-04
  rms(prec ) = 0.26494E-04
  weight for this iteration     100.00

 eigenvalues of (default mixing * dielectric matrix)
  average eigenvalue GAMMA=   2.5311
  8.6519  5.6061  4.2452  3.4666  2.5579  2.4563  2.1899  1.2787  1.2787  1.2122
  1.1696  1.0108  0.9745  0.9745  0.8941

 Free energy of the ion-electron system (eV)
  ---------------------------------------------------
  alpha Z        PSCENC =         0.23396119
  Ewald energy   TEWEN  =       126.86331835
  -Hartree energ DENC   =      -282.99562532
  -exchange      EXHF   =         0.00000000
  -V(xc)+E(xc)   XCENC  =        24.58678974
  PAW double counting   =       447.34947583     -448.12537046
  entropy T*S    EENTRO =        -0.00000000
  eigenvalues    EBANDS =       -88.96325368
  atomic energy  EATOM  =       197.04175453
  Solvation  Ediel_sol  =         0.00000000
  ---------------------------------------------------
  free energy    TOTEN  =       -24.00894981 eV

  energy without entropy =      -24.00894981  energy(sigma->0) =      -24.00894981


--------------------------------------------------------------------------------------------------------




--------------------------------------- Iteration      1(  21)  ---------------------------------------


    POTLOK:  cpu time    0.1426: real time    0.1426
    SETDIJ:  cpu time    0.0016: real time    0.0016
    EDDIAG:  cpu time    0.0373: real time    0.0373
  RMM-DIIS:  cpu time    0.1077: real time    0.1077
    ORTHCH:  cpu time    0.0015: real time    0.0015
       DOS:  cpu time    0.0002: real time    0.0002
    --------------------------------------------
      LOOP:  cpu time    0.2909: real time    0.2909

 eigenvalue-minimisations  :    33
 total energy-change (2. order) :-0.3593233E-06  (-0.5450298E-09)
 number of electron       8.0000001 magnetization 
 augmentation part        0.1813349 magnetization 

 Free energy of the ion-electron system (eV)
  ---------------------------------------------------
  alpha Z        PSCENC =         0.23396119
  Ewald energy   TEWEN  =       126.86331835
  -Hartree energ DENC   =      -282.99673566
  -exchange      EXHF   =         0.00000000
  -V(xc)+E(xc)   XCENC  =        24.58686651
  PAW double counting   =       447.35644693     -448.13234839
  entropy T*S    EENTRO =        -0.00000000
  eigenvalues    EBANDS =       -88.96221364
  atomic energy  EATOM  =       197.04175453
  Solvation  Ediel_sol  =         0.00000000
  ---------------------------------------------------
  free energy    TOTEN  =       -24.00895017 eV

  energy without entropy =      -24.00895017  energy(sigma->0) =      -24.00895017


--------------------------------------------------------------------------------------------------------




 average (electrostatic) potential at core
  the test charge radii are     0.5201  0.6991
  (the norm of the test charge is              1.0000)
       1 -41.3723       2 -41.4742       3 -41.4557       4 -41.3400       5 -58.0540
 
 
 
 E-fermi :  -8.1856     XC(G=0):  -0.6824     alpha+bet : -0.2035


 k-point     1 :       0.2500    0.2500    0.2500
  band No.  band energies     occupation 
      1     -16.7787      2.00000
      2      -9.3342      2.00000
      3      -9.2446      2.00000
      4      -9.1236      2.00000
      5      -0.3377      0.00000
      6       0.5408      0.00000
      7       0.6539      0.00000
      8       0.6806      0.00000

 k-point     2 :      -0.2500    0.2500    0.2500
  band No.  band energies     occupation 
      1     -16.7787      2.00000
      2      -9.3341      2.00000
      3      -9.2447      2.00000
      4      -9.1236      2.00000
      5      -0.3386      0.00000
      6       0.5384      0.00000
      7       0.6523      0.00000
      8       0.6866      0.00000

 k-point     3 :       0.2500   -0.2500    0.2500
  band No.  band energies     occupation 
      1     -16.7787      2.00000
      2      -9.3341      2.00000
      3      -9.2446      2.00000
      4      -9.1236      2.00000
      5      -0.3401      0.00000
      6       0.5377      0.00000
      7       0.6586      0.00000
      8       0.6936      0.00000

 k-point     4 :      -0.2500   -0.2500    0.2500
  band No.  band energies     occupation 
      1     -16.7787      2.00000
      2      -9.3343      2.00000
      3      -9.2447      2.00000
      4      -9.1236      2.00000
      5      -0.3337      0.00000
      6       0.5336      0.00000
      7       0.6453      0.00000
      8       0.6662      0.00000


--------------------------------------------------------------------------------------------------------


 soft charge-density along one line, spin component           1
         0         1         2         3         4         5         6         7         8         9
 total charge-density along one line
 
 pseudopotential strength for first ion, spin component:           1
 -2.340  -4.032  -0.001  -0.001   0.001
 -4.032  -6.861  -0.003  -0.004   0.002
 -0.001  -0.003  -0.338   0.002  -0.001
 -0.001  -0.004   0.002  -0.337  -0.001
  0.001   0.002  -0.001  -0.001  -0.339
 total augmentation occupancy for first ion, spin component:           1
  3.471  -0.627   0.228   0.314  -0.127
 -0.627   0.127  -0.042  -0.059   0.024
  0.228  -0.042   0.021   0.017  -0.007
  0.314  -0.059   0.017   0.032  -0.010
 -0.127   0.024  -0.007  -0.010   0.012


------------------------ aborting loop because EDIFF is reached ----------------------------------------


    CHARGE:  cpu time    0.0185: real time    0.0185
    FORLOC:  cpu time    0.0138: real time    0.0138
    FORNL :  cpu time    0.0204: real time    0.0204
    STRESS:  cpu time    0.1534: real time    0.1544
    FORCOR:  cpu time    0.1417: real time    0.1417
    FORHAR:  cpu time    0.0443: real time    0.0443
    MIXING:  cpu time    0.0066: real time    0.0066
    OFIELD:  cpu time    0.0000: real time    0.0000

  FORCE on cell =-STRESS in cart. coord.  units (eV):
  Direction    XX          YY          ZZ          XY          YZ          ZX
  --------------------------------------------------------------------------------------
  Alpha Z     0.23396     0.23396     0.23396
  Ewald      43.49339    42.88267    40.48721    -1.67457     0.62026     1.43935
  Hartree    95.53913    93.73330    93.72430    -0.75491     0.21421     0.56437
  E(xc)     -27.04951   -27.03474   -27.04548    -0.00944     0.00224     0.00709
  Local    -197.87610  -195.25095  -193.55110     2.25422    -0.72390    -1.80288
  n-local   -15.58573   -15.54808   -15.50506    -0.01818    -0.00374     0.00381
  augment     0.12142     0.12034     0.12628     0.00086    -0.00082    -0.00131
  Kinetic   100.47024    99.73416   100.21398     0.46584    -0.10419    -0.33546
  Fock        0.00000     0.00000     0.00000     0.00000     0.00000     0.00000
  -------------------------------------------------------------------------------------
  Total      -0.65320    -1.12934    -1.31590     0.26381     0.00406    -0.12503
  in kB      -1.01073    -1.74749    -2.03617     0.40821     0.00628    -0.19347
  external pressure =       -1.60 kB  Pullay stress =        0.00 kB

  kinetic pressure (ideal gas correction) =      0.00 kB
  total pressure  =     -1.60 kB
  Total+kin.    -1.011      -1.747      -2.036       0.408       0.006      -0.193

 VOLUME and BASIS-vectors are now :
 -----------------------------------------------------------------------------
  energy-cutoff  :      400.00
  volume of cell :     1035.43
      direct lattice vectors                 reciprocal lattice vectors
     9.992056493  0.000000000  0.000000000     0.100079498  0.002118395 -0.001583152
    -0.215934604 10.201413798  0.000000000     0.000000000  0.098025629 -0.000676244
     0.159204753  0.070076130 10.157951483     0.000000000  0.000000000  0.098445046

  length of vectors
     9.992056493 10.203698899 10.159440691     0.100114434  0.098027961  0.098445046


 FORCES acting on ions
    electron-ion (+dipol)            ewald-force                    non-local-force                 convergence-correction
 -----------------------------------------------------------------------------------------------
   -.161E+02 0.289E+02 0.398E+02   0.176E+02 -.314E+02 -.434E+02   -.162E+01 0.293E+01 0.401E+01   -.139E-04 0.136E-04 0.126E-04
   0.519E+02 -.628E+01 0.301E+01   -.571E+02 0.682E+01 -.326E+01   0.538E+01 -.679E+00 0.328E+00   0.350E-04 0.127E-05 0.175E-05
   -.221E+02 -.474E+02 0.122E+01   0.244E+02 0.520E+02 -.138E+01   -.225E+01 -.490E+01 0.113E+00   -.204E-04 -.162E-04 -.122E-05
   -.129E+02 0.239E+02 -.438E+02   0.140E+02 -.259E+02 0.476E+02   -.131E+01 0.239E+01 -.438E+01   -.127E-04 0.109E-04 -.145E-04
   -.103E+01 0.132E+01 -.353E+00   0.120E+01 -.156E+01 0.424E+00   0.862E-01 -.130E+00 0.594E-01   -.421E-04 0.411E-04 -.755E-05
 -----------------------------------------------------------------------------------------------
   -.285E+00 0.387E+00 -.131E+00   0.000E+00 -.355E-14 -.711E-14   0.284E+00 -.387E+00 0.131E+00   -.541E-04 0.506E-04 -.897E-05
 
 
 POSITION                                       TOTAL-FORCE (eV/Angst)
 -----------------------------------------------------------------------------------
      5.34613      4.17508      3.66273        -0.156293      0.422303      0.435225
      3.90620      4.93044      4.45891         0.142512     -0.137463      0.079907
      5.46471      5.79897      4.49683         0.013954     -0.286854     -0.046093
      5.27982      4.27907      5.47624        -0.263322      0.368224     -0.599598
      4.99844      4.79758      4.52247         0.262558     -0.366396      0.130566
 -----------------------------------------------------------------------------------
    total drift:                               -0.000590     -0.000186      0.000008


--------------------------------------------------------------------------------------------------------



  FREE ENERGIE OF THE ION-ELECTRON SYSTEM (eV)
  ---------------------------------------------------
  free  energy   TOTEN  =       -24.00895017 eV

  energy  without entropy=      -24.00895017  energy(sigma->0) =      -24.00895017
 


--------------------------------------------------------------------------------------------------------


    POTLOK:  cpu time    0.1448: real time    0.1448


--------------------------------------------------------------------------------------------------------


 stress matrix after NEB project (eV)
     -0.65320      0.26381     -0.12503
      0.26381     -1.12934      0.00406
     -0.12503      0.00406     -1.31590
  FORCES: max atom, RMS     0.751295    0.511284
  FORCE total and by dimension    1.143266    0.599598
  Stress total and by dimension    1.898468    1.315904
           RANDOM_SEED =         581357899                0                0
           RANDOM_SEED =         581357899               30                0
   IONSTEP:  cpu time    0.0032: real time    0.0070

  ENERGY OF THE ELECTRON-ION-THERMOSTAT SYSTEM (eV)
  ---------------------------------------------------
% ion-electron   TOTEN  =       -24.008950  see above
  kinetic energy EKIN   =         0.000336
  kin. lattice  EKIN_LAT=         0.000000  (temperature    0.65 K)
  nose potential ES     =         0.000000
  nose kinetic   EPS    =         0.000000
  ---------------------------------------------------
  total energy   ETOTAL =       -24.008614 eV

  maximum distance moved by ions :      0.18E-03

    WAVPRE:  cpu time    0.0428: real time    0.0428
    FEWALD:  cpu time    0.0003: real time    0.0003
    ORTHCH:  cpu time    0.0084: real time    0.0084
     LOOP+:  cpu time    7.4628: real time    7.5160


--------------------------------------- Iteration      2(   1)  ---------------------------------------


    POTLOK:  cpu time    0.1436: real time    0.1436
    SETDIJ:  cpu time    0.0016: real time    0.0016
     EDDAV:  cpu time    0.1761: real time    0.1762
       DOS:  cpu time    0.0002: real time    0.0002
    CHARGE:  cpu time    0.0187: real time    0.0187
    MIXING:  cpu time    0.0066: real time    0.0066
    --------------------------------------------
      LOOP:  cpu time    0.3469: real time    0.3470

 eigenvalue-minimisations  :    80
 total energy-change (2. order) :-0.2603778E-02  (-0.2984564E-03)
 number of electron       8.0000001 magnetization 
 augmentation part        0.1817105 magnetization 

 Broyden mixing:
  rms(total) = 0.28744E-02    rms(broyden)= 0.28730E-02
  rms(prec ) = 0.37775E-02
  weight for this iteration     100.00

 Free energy of the ion-electron system (eV)
  ---------------------------------------------------
  alpha Z        PSCENC =         0.23396119
  Ewald energy   TEWEN  =       127.10630626
  -Hartree energ DENC   =      -283.14090416
  -exchange      EXHF   =         0.00000000
  -V(xc)+E(xc)   XCENC  =        24.59414028
  PAW double counting   =       447.36014862     -448.13604736
  entropy T*S    EENTRO =        -0.00000000
  eigenvalues    EBANDS =       -89.07091296
  atomic energy  EATOM  =       197.04175453
  Solvation  Ediel_sol  =         0.00000000
  ---------------------------------------------------
  free energy    TOTEN  =       -24.01155359 eV

  energy without entropy =      -24.01155359  energy(sigma->0) =      -24.01155359


--------------------------------------------------------------------------------------------------------




--------------------------------------- Iteration      2(   2)  ---------------------------------------


    POTLOK:  cpu time    0.1510: real time    0.1510
    SETDIJ:  cpu time    0.0016: real time    0.0016
    EDDIAG:  cpu time    0.0371: real time    0.0371
  RMM-DIIS:  cpu time    0.1585: real time    0.1585
    ORTHCH:  cpu time    0.0015: real time    0.0015
       DOS:  cpu time    0.0002: real time    0.0002
    CHARGE:  cpu time    0.0188: real time    0.0188
    MIXING:  cpu time    0.0045: real time    0.0045
    --------------------------------------------
      LOOP:  cpu time    0.3731: real time    0.3731

 eigenvalue-minimisations  :    64
 total energy-change (2. order) : 0.2323245E-04  (-0.7202651E-05)
 number of electron       8.0000001 magnetization 
 augmentation part        0.1816650 magnetization 

 Broyden mixing:
  rms(total) = 0.12777E-02    rms(broyden)= 0.12775E-02
  rms(prec ) = 0.15810E-02
  weight for this iteration     100.00

 eigenvalues of (default mixing * dielectric matrix)
  average eigenvalue GAMMA=   1.6587
  1.6587

 Free energy of the ion-electron system (eV)
  ---------------------------------------------------
  alpha Z        PSCENC =         0.23396119
  Ewald energy   TEWEN  =       127.10630626
  -Hartree energ DENC   =      -283.19040768
  -exchange      EXHF   =         0.00000000
  -V(xc)+E(xc)   XCENC  =        24.59680927
  PAW double counting   =       447.98700673     -448.76347244
  entropy T*S    EENTRO =        -0.00000000
  eigenvalues    EBANDS =       -89.02348821
  atomic energy  EATOM  =       197.04175453
  Solvation  Ediel_sol  =         0.00000000
  ---------------------------------------------------
  free energy    TOTEN  =       -24.01153036 eV

  energy without entropy =      -24.01153036  energy(sigma->0) =      -24.01153036


--------------------------------------------------------------------------------------------------------




--------------------------------------- Iteration      2(   3)  ---------------------------------------


    POTLOK:  cpu time    0.1492: real time    0.1492
    SETDIJ:  cpu time    0.0016: real time    0.0016
    EDDIAG:  cpu time    0.0373: real time    0.0373
  RMM-DIIS:  cpu time    0.1579: real time    0.1579
    ORTHCH:  cpu time    0.0015: real time    0.0015
       DOS:  cpu time    0.0002: real time    0.0002
    CHARGE:  cpu time    0.0190: real time    0.0190
    MIXING:  cpu time    0.0047: real time    0.0047
    --------------------------------------------
      LOOP:  cpu time    0.3713: real time    0.3713

 eigenvalue-minimisations  :    64
 total energy-change (2. order) : 0.4079083E-06  (-0.3911316E-05)
 number of electron       8.0000001 magnetization 
 augmentation part        0.1816165 magnetization 

 Broyden mixing:
  rms(total) = 0.54750E-03    rms(broyden)= 0.54706E-03
  rms(prec ) = 0.64196E-03
  weight for this iteration     100.00

 eigenvalues of (default mixing * dielectric matrix)
  average eigenvalue GAMMA=   1.3389
  1.3389  1.3389

 Free energy of the ion-electron system (eV)
  ---------------------------------------------------
  alpha Z        PSCENC =         0.23396119
  Ewald energy   TEWEN  =       127.10630626
  -Hartree energ DENC   =      -283.21916841
  -exchange      EXHF   =         0.00000000
  -V(xc)+E(xc)   XCENC  =        24.59841698
  PAW double counting   =       448.48877985     -449.26560554
  entropy T*S    EENTRO =        -0.00000000
  eigenvalues    EBANDS =       -88.99597481
  atomic energy  EATOM  =       197.04175453
  Solvation  Ediel_sol  =         0.00000000
  ---------------------------------------------------
  free energy    TOTEN  =       -24.01152995 eV

  energy without entropy =      -24.01152995  energy(sigma->0) =      -24.01152995


--------------------------------------------------------------------------------------------------------




--------------------------------------- Iteration      2(   4)  ---------------------------------------


    POTLOK:  cpu time    0.1506: real time    0.1507
    SETDIJ:  cpu time    0.0017: real time    0.0017
    EDDIAG:  cpu time    0.0376: real time    0.0376
  RMM-DIIS:  cpu time    0.1267: real time    0.1267
    ORTHCH:  cpu time    0.0016: real time    0.0016
       DOS:  cpu time    0.0002: real time    0.0002
    --------------------------------------------
      LOOP:  cpu time    0.3183: real time    0.3184

 eigenvalue-minimisations  :    48
 total energy-change (2. order) : 0.2607925E-06  (-0.1069053E-06)
 number of electron       8.0000001 magnetization 
 augmentation part        0.1816165 magnetization 

 Free energy of the ion-electron system (eV)
  ---------------------------------------------------
  alpha Z        PSCENC =         0.23396119
  Ewald energy   TEWEN  =       127.10630626
  -Hartree energ DENC   =      -283.21155104
  -exchange      EXHF   =         0.00000000
  -V(xc)+E(xc)   XCENC  =        24.59811881
  PAW double counting   =       448.56551548     -449.34223951
  entropy T*S    EENTRO =        -0.00000000
  eigenvalues    EBANDS =       -89.00339541
  atomic energy  EATOM  =       197.04175453
  Solvation  Ediel_sol  =         0.00000000
  ---------------------------------------------------
  free energy    TOTEN  =       -24.01152969 eV

  energy without entropy =      -24.01152969  energy(sigma->0) =      -24.01152969


--------------------------------------------------------------------------------------------------------




 average (electrostatic) potential at core
  the test charge radii are     0.5201  0.6991
  (the norm of the test charge is              1.0000)
       1 -41.3818       2 -41.4755       3 -41.4587       4 -41.3516       5 -58.0470
 
 
 
 E-fermi :  -8.1959     XC(G=0):  -0.7013     alpha+bet : -0.2035


 k-point     1 :       0.2500    0.2500    0.2500
  band No.  band energies     occupation 
      1     -16.7866      2.00000
      2      -9.3365      2.00000
      3      -9.2478      2.00000
      4      -9.1307      2.00000
      5      -0.3422      0.00000
      6       0.5248      0.00000
      7       0.6422      0.00000
      8       0.6685      0.00000

 k-point     2 :      -0.2500    0.2500    0.2500
  band No.  band energies     occupation 
      1     -16.7866      2.00000
      2      -9.3365      2.00000
      3      -9.2478      2.00000
      4      -9.1307      2.00000
      5      -0.3431      0.00000
      6       0.5224      0.00000
      7       0.6408      0.00000
      8       0.6741      0.00000

 k-point     3 :       0.2500   -0.2500    0.2500
  band No.  band energies     occupation 
      1     -16.7866      2.00000
      2      -9.3365      2.00000
      3      -9.2478      2.00000
      4      -9.1307      2.00000
      5      -0.3447      0.00000
      6       0.5233      0.00000
      7       0.6464      0.00000
      8       0.6806      0.00000

 k-point     4 :      -0.2500   -0.2500    0.2500
  band No.  band energies     occupation 
      1     -16.7866      2.00000
      2      -9.3367      2.00000
      3      -9.2479      2.00000
      4      -9.1308      2.00000
      5      -0.3381      0.00000
      6       0.5171      0.00000
      7       0.6333      0.00000
      8       0.6541      0.00000


--------------------------------------------------------------------------------------------------------


 soft charge-density along one line, spin component           1
         0         1         2         3         4         5         6         7         8         9
 total charge-density along one line
 
 pseudopotential strength for first ion, spin component:           1
 -2.340  -4.032  -0.001  -0.001   0.001
 -4.032  -6.861  -0.003  -0.004   0.002
 -0.001  -0.003  -0.338   0.002  -0.001
 -0.001  -0.004   0.002  -0.337  -0.001
  0.001   0.002  -0.001  -0.001  -0.339
 total augmentation occupancy for first ion, spin component:           1
  3.477  -0.628   0.229   0.315  -0.127
 -0.628   0.127  -0.042  -0.059   0.024
  0.229  -0.042   0.021   0.017  -0.007
  0.315  -0.059   0.017   0.032  -0.010
 -0.127   0.024  -0.007  -0.010   0.012


------------------------ aborting loop because EDIFF is reached ----------------------------------------


    CHARGE:  cpu time    0.0187: real time    0.0187
    FORLOC:  cpu time    0.0137: real time    0.0138
    FORNL :  cpu time    0.0204: real time    0.0204
    STRESS:  cpu time    0.1532: real time    0.1532
    FORCOR:  cpu time    0.1443: real time    0.1443
    FORHAR:  cpu time    0.0479: real time    0.0479
    MIXING:  cpu time    0.0062: real time    0.0062
    OFIELD:  cpu time    0.0000: real time    0.0000

  FORCE on cell =-STRESS in cart. coord.  units (eV):
  Direction    XX          YY          ZZ          XY          YZ          ZX
  --------------------------------------------------------------------------------------
  Alpha Z     0.23396     0.23396     0.23396
  Ewald      43.55460    42.92828    40.62339    -1.65923     0.60705     1.41769
  Hartree    95.62386    93.79595    93.78906    -0.74322     0.21263     0.55721
  E(xc)     -27.06135   -27.04698   -27.05764    -0.00920     0.00221     0.00694
  Local    -198.02577  -195.35384  -193.71676     2.22469    -0.71254    -1.77686
  n-local   -15.60834   -15.57309   -15.53337    -0.01706    -0.00345     0.00368
  augment     0.12112     0.11992     0.12560     0.00089    -0.00080    -0.00129
  Kinetic   100.52966    99.81261   100.29005     0.45440    -0.10280    -0.32900
  Fock        0.00000     0.00000     0.00000     0.00000     0.00000     0.00000
[...]
      5.46794      5.78182      4.49301         0.112699      0.140873     -0.026878
      5.26361      4.29977      5.44438         0.114053     -0.261466      0.524679
      4.99951      4.79605      4.52307        -0.280294      0.377235     -0.120540
 -----------------------------------------------------------------------------------
    total drift:                               -0.000239     -0.000184      0.000319


--------------------------------------------------------------------------------------------------------



  FREE ENERGIE OF THE ION-ELECTRON SYSTEM (eV)
  ---------------------------------------------------
  free  energy   TOTEN  =       -24.01981834 eV

  energy  without entropy=      -24.01981834  energy(sigma->0) =      -24.01981834
 
 d Force =-0.4470395E-02[-0.544E-02,-0.350E-02]  d Energy =-0.4464239E-02-0.616E-05
 d Force =-0.7562387E+00[-0.759E+00,-0.754E+00]  d Ewald  =-0.7562342E+00-0.452E-05


--------------------------------------------------------------------------------------------------------


    POTLOK:  cpu time    0.1383: real time    0.1383


--------------------------------------------------------------------------------------------------------


 stress matrix after NEB project (eV)
     -0.13561     -0.05487     -0.02761
     -0.05487      0.01128     -0.04879
     -0.02761     -0.04879      0.41867
  FORCES: max atom, RMS     0.597210    0.418209
  FORCE total and by dimension    0.935143    0.524679
  Stress total and by dimension    0.453988    0.418666
           RANDOM_SEED =         581357899               30                0
   IONSTEP:  cpu time    0.0002: real time    0.0002

  ENERGY OF THE ELECTRON-ION-THERMOSTAT SYSTEM (eV)
  ---------------------------------------------------
% ion-electron   TOTEN  =       -24.019818  see above
  kinetic energy EKIN   =         0.011024
  kin. lattice  EKIN_LAT=         0.000000  (temperature   21.32 K)
  nose potential ES     =         0.000000
  nose kinetic   EPS    =         0.000000
  ---------------------------------------------------
  total energy   ETOTAL =       -24.008794 eV

  maximum distance moved by ions :      0.40E-03

    WAVPRE:  cpu time    0.0482: real time    0.0482
    FEWALD:  cpu time    0.0003: real time    0.0003
    ORTHCH:  cpu time    0.0084: real time    0.0084
 Prediction of Wavefunctions ALPHA= 2.215 BETA=-1.254
     LOOP+:  cpu time    1.9122: real time    1.9124


--------------------------------------- Iteration     10(   1)  ---------------------------------------


    POTLOK:  cpu time    0.1365: real time    0.1365
    SETDIJ:  cpu time    0.0017: real time    0.0017
     EDDAV:  cpu time    0.2018: real time    0.2018
       DOS:  cpu time    0.0002: real time    0.0002
    CHARGE:  cpu time    0.0185: real time    0.0185
    MIXING:  cpu time    0.0044: real time    0.0044
    --------------------------------------------
      LOOP:  cpu time    0.3631: real time    0.3631

 eigenvalue-minimisations  :    96
 total energy-change (2. order) : 0.4411265E-02  (-0.3164617E-04)
 number of electron       8.0000001 magnetization 
 augmentation part        0.1887310 magnetization 

 Broyden mixing:
  rms(total) = 0.10763E-03    rms(broyden)= 0.10700E-03
  rms(prec ) = 0.12331E-03
  weight for this iteration     100.00

 Free energy of the ion-electron system (eV)
  ---------------------------------------------------
  alpha Z        PSCENC =         0.23396119
  Ewald energy   TEWEN  =       133.10183043
  -Hartree energ DENC   =      -288.48571555
  -exchange      EXHF   =         0.00000000
  -V(xc)+E(xc)   XCENC  =        24.87698849
  PAW double counting   =       484.92352088     -485.72129324
  entropy T*S    EENTRO =        -0.00000000
  eigenvalues    EBANDS =       -89.98645339
  atomic energy  EATOM  =       197.04175453
  Solvation  Ediel_sol  =         0.00000000
  ---------------------------------------------------
  free energy    TOTEN  =       -24.01540666 eV

  energy without entropy =      -24.01540666  energy(sigma->0) =      -24.01540666


--------------------------------------------------------------------------------------------------------




--------------------------------------- Iteration     10(   2)  ---------------------------------------


    POTLOK:  cpu time    0.1359: real time    0.1359
    SETDIJ:  cpu time    0.0016: real time    0.0016
    EDDIAG:  cpu time    0.0372: real time    0.0373
  RMM-DIIS:  cpu time    0.1518: real time    0.1518
    ORTHCH:  cpu time    0.0015: real time    0.0015
       DOS:  cpu time    0.0002: real time    0.0002
    CHARGE:  cpu time    0.0187: real time    0.0187
    MIXING:  cpu time    0.0046: real time    0.0046
    --------------------------------------------
      LOOP:  cpu time    0.3515: real time    0.3516

 eigenvalue-minimisations  :    56
 total energy-change (2. order) :-0.6332609E-06  (-0.4398332E-06)
 number of electron       8.0000001 magnetization 
 augmentation part        0.1887348 magnetization 

 Broyden mixing:
  rms(total) = 0.14450E-03    rms(broyden)= 0.14424E-03
  rms(prec ) = 0.15529E-03
  weight for this iteration     100.00

 eigenvalues of (default mixing * dielectric matrix)
  average eigenvalue GAMMA=   0.3723
  0.3723

 Free energy of the ion-electron system (eV)
  ---------------------------------------------------
  alpha Z        PSCENC =         0.23396119
  Ewald energy   TEWEN  =       133.10183043
  -Hartree energ DENC   =      -288.48527068
  -exchange      EXHF   =         0.00000000
  -V(xc)+E(xc)   XCENC  =        24.87696315
  PAW double counting   =       484.91971410     -485.71747523
  entropy T*S    EENTRO =        -0.00000000
  eigenvalues    EBANDS =       -89.98688478
  atomic energy  EATOM  =       197.04175453
  Solvation  Ediel_sol  =         0.00000000
  ---------------------------------------------------
  free energy    TOTEN  =       -24.01540729 eV

  energy without entropy =      -24.01540729  energy(sigma->0) =      -24.01540729


--------------------------------------------------------------------------------------------------------




--------------------------------------- Iteration     10(   3)  ---------------------------------------


    POTLOK:  cpu time    0.1379: real time    0.1379
    SETDIJ:  cpu time    0.0016: real time    0.0016
    EDDIAG:  cpu time    0.0373: real time    0.0373
  RMM-DIIS:  cpu time    0.1262: real time    0.1262
    ORTHCH:  cpu time    0.0016: real time    0.0016
       DOS:  cpu time    0.0002: real time    0.0002
    CHARGE:  cpu time    0.0188: real time    0.0188
    MIXING:  cpu time    0.0048: real time    0.0048
    --------------------------------------------
      LOOP:  cpu time    0.3284: real time    0.3284

 eigenvalue-minimisations  :    44
 total energy-change (2. order) :-0.1593924E-07  (-0.1037607E-07)
 number of electron       8.0000001 magnetization 
 augmentation part        0.1887348 magnetization 

 Broyden mixing:
  rms(total) = 0.13956E-03    rms(broyden)= 0.13954E-03
  rms(prec ) = 0.14935E-03
  weight for this iteration     100.00

 eigenvalues of (default mixing * dielectric matrix)
  average eigenvalue GAMMA=   0.8556
  0.8556  0.8556

 Free energy of the ion-electron system (eV)
  ---------------------------------------------------
  alpha Z        PSCENC =         0.23396119
  Ewald energy   TEWEN  =       133.10183043
  -Hartree energ DENC   =      -288.48524109
  -exchange      EXHF   =         0.00000000
  -V(xc)+E(xc)   XCENC  =        24.87696647
  PAW double counting   =       484.90422273     -485.70198502
  entropy T*S    EENTRO =        -0.00000000
  eigenvalues    EBANDS =       -89.98691654
  atomic energy  EATOM  =       197.04175453
  Solvation  Ediel_sol  =         0.00000000
  ---------------------------------------------------
  free energy    TOTEN  =       -24.01540730 eV

  energy without entropy =      -24.01540730  energy(sigma->0) =      -24.01540730


--------------------------------------------------------------------------------------------------------




--------------------------------------- Iteration     10(   4)  ---------------------------------------


    POTLOK:  cpu time    0.1377: real time    0.1377
    SETDIJ:  cpu time    0.0016: real time    0.0016
    EDDIAG:  cpu time    0.0372: real time    0.0373
  RMM-DIIS:  cpu time    0.1216: real time    0.1216
    ORTHCH:  cpu time    0.0015: real time    0.0015
       DOS:  cpu time    0.0002: real time    0.0002
    --------------------------------------------
      LOOP:  cpu time    0.2997: real time    0.2997

 eigenvalue-minimisations  :    36
 total energy-change (2. order) :-0.2014220E-06  (-0.1314012E-08)
 number of electron       8.0000001 magnetization 
 augmentation part        0.1887348 magnetization 

 Free energy of the ion-electron system (eV)
  ---------------------------------------------------
  alpha Z        PSCENC =         0.23396119
  Ewald energy   TEWEN  =       133.10183043
  -Hartree energ DENC   =      -288.48518582
  -exchange      EXHF   =         0.00000000
  -V(xc)+E(xc)   XCENC  =        24.87697622
  PAW double counting   =       484.85782561     -485.65559109
  entropy T*S    EENTRO =        -0.00000000
  eigenvalues    EBANDS =       -89.98697859
  atomic energy  EATOM  =       197.04175453
  Solvation  Ediel_sol  =         0.00000000
  ---------------------------------------------------
  free energy    TOTEN  =       -24.01540751 eV

  energy without entropy =      -24.01540751  energy(sigma->0) =      -24.01540751


--------------------------------------------------------------------------------------------------------




 average (electrostatic) potential at core
  the test charge radii are     0.5201  0.6991
  (the norm of the test charge is              1.0000)
       1 -41.6207       2 -41.5033       3 -41.5264       4 -41.6543       5 -57.8907
 
 
 
 E-fermi :  -8.3525     XC(G=0):  -0.6560     alpha+bet : -0.2035


 k-point     1 :       0.2500    0.2500    0.2500
  band No.  band energies     occupation 
      1     -16.9800      2.00000
      2      -9.3762      2.00000
      3      -9.3579      2.00000
      4      -9.2793      2.00000
      5      -0.2971      0.00000
      6       0.5733      0.00000
      7       0.6741      0.00000
      8       0.6957      0.00000

 k-point     2 :      -0.2500    0.2500    0.2500
  band No.  band energies     occupation 
      1     -16.9801      2.00000
      2      -9.3762      2.00000
      3      -9.3578      2.00000
      4      -9.2793      2.00000
      5      -0.2983      0.00000
      6       0.5734      0.00000
      7       0.6721      0.00000
      8       0.7015      0.00000

 k-point     3 :       0.2500   -0.2500    0.2500
  band No.  band energies     occupation 
      1     -16.9800      2.00000
      2      -9.3762      2.00000
      3      -9.3579      2.00000
      4      -9.2793      2.00000
      5      -0.3000      0.00000
      6       0.5736      0.00000
      7       0.6780      0.00000
      8       0.7086      0.00000

 k-point     4 :      -0.2500   -0.2500    0.2500
  band No.  band energies     occupation 
      1     -16.9801      2.00000
      2      -9.3762      2.00000
      3      -9.3580      2.00000
      4      -9.2795      2.00000
      5      -0.2930      0.00000
      6       0.5643      0.00000
      7       0.6662      0.00000
      8       0.6832      0.00000


--------------------------------------------------------------------------------------------------------


 soft charge-density along one line, spin component           1
         0         1         2         3         4         5         6         7         8         9
 total charge-density along one line
 
 pseudopotential strength for first ion, spin component:           1
 -2.342  -4.036  -0.001  -0.001   0.001
 -4.036  -6.869  -0.003  -0.004   0.002
 -0.001  -0.003  -0.336   0.002  -0.001
 -0.001  -0.004   0.002  -0.335  -0.001
  0.001   0.002  -0.001  -0.001  -0.337
 total augmentation occupancy for first ion, spin component:           1
  3.609  -0.647   0.248   0.349  -0.141
 -0.647   0.131  -0.045  -0.064   0.026
  0.248  -0.045   0.024   0.020  -0.008
  0.349  -0.064   0.020   0.038  -0.011
 -0.141   0.026  -0.008  -0.011   0.014


------------------------ aborting loop because EDIFF is reached ----------------------------------------


    CHARGE:  cpu time    0.0191: real time    0.0191
    FORLOC:  cpu time    0.0136: real time    0.0136
    FORNL :  cpu time    0.0204: real time    0.0204
    STRESS:  cpu time    0.1536: real time    0.1537
    FORCOR:  cpu time    0.1449: real time    0.1449
    FORHAR:  cpu time    0.0478: real time    0.0478
    MIXING:  cpu time    0.0052: real time    0.0052
    OFIELD:  cpu time    0.0000: real time    0.0000

  FORCE on cell =-STRESS in cart. coord.  units (eV):
  Direction    XX          YY          ZZ          XY          YZ          ZX
  --------------------------------------------------------------------------------------
  Alpha Z     0.23396     0.23396     0.23396
  Ewald      45.30457    43.56682    44.23041    -0.81998     0.14774     0.50598
  Hartree    97.77727    95.22776    95.47886    -0.33695     0.14482     0.28018
  E(xc)     -27.35625   -27.35473   -27.35971    -0.00120     0.00083     0.00145
  Local    -201.96515  -197.36176  -198.02493     0.99489    -0.30906    -0.72748
  n-local   -16.17307   -16.19748   -16.23915     0.01126     0.00467    -0.00059
  augment     0.11281     0.10960     0.10634     0.00153     0.00028    -0.00046
  Kinetic   101.98496   101.91166   102.16122     0.05689    -0.04174    -0.07011
  Fock        0.00000     0.00000     0.00000     0.00000     0.00000     0.00000
  -------------------------------------------------------------------------------------
  Total      -0.08090     0.13583     0.58701    -0.09357    -0.05246    -0.01104
  in kB      -0.12518     0.21017     0.90830    -0.14479    -0.08117    -0.01709
  external pressure =        0.33 kB  Pullay stress =        0.00 kB

  kinetic pressure (ideal gas correction) =      0.01 kB
  total pressure  =      0.34 kB
  Total+kin.    -0.120       0.225       0.916      -0.152      -0.082      -0.014

 VOLUME and BASIS-vectors are now :
 -----------------------------------------------------------------------------
  energy-cutoff  :      400.00
  volume of cell :     1035.43
      direct lattice vectors                 reciprocal lattice vectors
     9.992056493  0.000000000  0.000000000     0.100079498  0.002118395 -0.001583152
    -0.215934604 10.201413798  0.000000000     0.000000000  0.098025629 -0.000676244
     0.159204753  0.070076130 10.157951483     0.000000000  0.000000000  0.098445046

  length of vectors
     9.992056493 10.203698899 10.159440691     0.100114434  0.098027961  0.098445046


 FORCES acting on ions
    electron-ion (+dipol)            ewald-force                    non-local-force                 convergence-correction
 -----------------------------------------------------------------------------------------------
   -.169E+02 0.296E+02 0.417E+02   0.189E+02 -.331E+02 -.466E+02   -.180E+01 0.316E+01 0.445E+01   -.963E-05 0.383E-04 0.376E-04
   0.528E+02 -.595E+01 0.278E+01   -.584E+02 0.657E+01 -.306E+01   0.550E+01 -.626E+00 0.293E+00   0.194E-04 0.737E-05 -.410E-05
   -.230E+02 -.481E+02 0.152E+01   0.255E+02 0.534E+02 -.170E+01   -.240E+01 -.504E+01 0.156E+00   -.989E-05 -.989E-05 -.167E-04
   -.131E+02 0.248E+02 -.461E+02   0.147E+02 -.278E+02 0.518E+02   -.142E+01 0.267E+01 -.497E+01   -.416E-04 0.460E-04 -.102E-03
   0.515E+00 -.726E+00 0.267E+00   -.679E+00 0.954E+00 -.347E+00   -.165E+00 0.220E+00 -.685E-01   0.260E-04 -.533E-04 -.662E-05
 -----------------------------------------------------------------------------------------------
   0.287E+00 -.392E+00 0.131E+00   0.000E+00 0.355E-14 0.000E+00   -.287E+00 0.392E+00 -.131E+00   -.158E-04 0.285E-04 -.921E-04
 
 
 POSITION                                       TOTAL-FORCE (eV/Angst)
 -----------------------------------------------------------------------------------
      5.33796      4.20316      3.68704         0.192587     -0.305238     -0.476610
      3.91481      4.91833      4.46601        -0.138582     -0.004806      0.006663
      5.46923      5.77956      4.49214         0.116872      0.191297     -0.020866
      5.26135      4.30195      5.44179         0.158789     -0.329030      0.638794
      4.99956      4.79596      4.52312        -0.329843      0.447717     -0.147684
 -----------------------------------------------------------------------------------
    total drift:                               -0.000177     -0.000060      0.000297


--------------------------------------------------------------------------------------------------------



  FREE ENERGIE OF THE ION-ELECTRON SYSTEM (eV)
  ---------------------------------------------------
  free  energy   TOTEN  =       -24.01540751 eV

  energy  without entropy=      -24.01540751  energy(sigma->0) =      -24.01540751
 
 d Force =-0.4414570E-02[-0.497E-02,-0.385E-02]  d Energy =-0.4410836E-02-0.373E-05
 d Force =-0.5635205E+00[-0.565E+00,-0.562E+00]  d Ewald  =-0.5635193E+00-0.118E-05


--------------------------------------------------------------------------------------------------------


    POTLOK:  cpu time    0.1403: real time    0.1403


--------------------------------------------------------------------------------------------------------


 stress matrix after NEB project (eV)
     -0.08090     -0.09357     -0.01104
     -0.09357      0.13583     -0.05246
     -0.01104     -0.05246      0.58701
  FORCES: max atom, RMS     0.735889    0.509896
  FORCE total and by dimension    1.140161    0.638794
  Stress total and by dimension    0.626760    0.587006
           RANDOM_SEED =         581357899               30                0
   IONSTEP:  cpu time    0.0002: real time    0.0002

  ENERGY OF THE ELECTRON-ION-THERMOSTAT SYSTEM (eV)
  ---------------------------------------------------
% ion-electron   TOTEN  =       -24.015408  see above
  kinetic energy EKIN   =         0.006711
  kin. lattice  EKIN_LAT=         0.000000  (temperature   12.98 K)
  nose potential ES     =         0.000000
  nose kinetic   EPS    =         0.000000
  ---------------------------------------------------
  total energy   ETOTAL =       -24.008696 eV

  maximum distance moved by ions :      0.25E-03


 mean value of Nose-termostat <S>:     1.000 mean value of <T> :    21.137
 mean temperature <T/S>/<1/S>  :    21.137

    WAVPRE:  cpu time    0.0524: real time    0.0524
    FEWALD:  cpu time    0.0003: real time    0.0003
    ORTHCH:  cpu time    0.0083: real time    0.0083
 Prediction of Wavefunctions ALPHA= 2.131 BETA=-1.160
    POTLOK:  cpu time    0.1472: real time    0.1473
    EDDIAG:  cpu time    0.0379: real time    0.0379
     LOOP+:  cpu time    2.1386: real time    2.1389
    4ORBIT:  cpu time    0.0000: real time    0.0007

 total amount of memory used by VASP MPI-rank0    56717. kBytes
=======================================================================

   base      :      30000. kBytes
   nonl-proj :       2791. kBytes
   fftplans  :       8578. kBytes
   grid      :      13527. kBytes
   one-center:          6. kBytes
   wavefun   :       1815. kBytes
 
  
  
 General timing and accounting informations for this job:
 ========================================================
  
                  Total CPU time used (sec):       28.307
                            User time (sec):       26.502
                          System time (sec):        1.806
                         Elapsed time (sec):       28.729
  
                   Maximum memory used (kb):      175756.
                   Average memory used (kb):           0.
  
                          Minor page faults:       252466
                          Major page faults:           89
                 Voluntary context switches:          454
