<?xml version="1.0" encoding="ISO-8859-1"?>
<modeling>
 <generator>
  <i name="program" type="string">vasp </i>
  <i name="version" type="string">5.4.4.18Apr17-6-g9f103f2a35  </i>
  <i name="subversion" type="string">(build Nov 25 2021 15:25:00) complex            parallel </i>
  <i name="platform" type="string">LinuxIFC </i>
  <i name="date" type="string">2022 02 21 </i>
  <i name="time" type="string">10:17:17 </i>
 </generator>
 <incar>
  <i type="string" name="PREC">a</i>
  <i type="string" name="ALGO">Fast</i>
  <i type="int" name="NELM">   120</i>
  <i type="int" name="NELMIN">     4</i>
  <i type="int" name="IBRION">     0</i>
  <i name="EDIFF">      0.00000100</i>
  <i type="int" name="NSW">    10</i>
  <i type="int" name="ISIF">     2</i>
  <i type="int" name="ISYM">     0</i>
  <i name="ENCUT">    400.00000000</i>
  <i name="POTIM">      0.50000000</i>
  <i type="logical" name="LREAL"> F  </i>
  <i type="int" name="ISMEAR">     0</i>
  <i name="SIGMA">      0.20000000</i>
  <i name="KSPACING">      0.50000000</i>
  <i type="logical" name="KGAMMA"> F  </i>
  <i name="PSTRESS">      0.00000000</i>
  <i type="logical" name="LWAVE"> F  </i>
  <i type="logical" name="LCHARG"> F  </i>
  <v type="int" name="KPOINT_BSE">    -1     0     0     0</v>
  <i type="int" name="NELM">   120</i>
 </incar>
 <structure name="primitive_cell" >
  <crystal>
   <varray name="basis" >
    <v>       9.99205649       0.00000000       0.00000000 </v>
    <v>      -0.21593460      10.20141380       0.00000000 </v>
    <v>       0.15920475       0.07007613      10.15795148 </v>
   </varray>
   <i name="volume">   1035.43151451 </i>
   <varray name="rec_basis" >
    <v>       0.10007950       0.00211840      -0.00158315 </v>
    <v>       0.00000000       0.09802563      -0.00067624 </v>
    <v>       0.00000000       0.00000000       0.09844505 </v>
   </varray>
  </crystal>
  <varray name="positions" >
   <v>      -0.46191582       0.40678793       0.36057718 </v>
   <v>      -0.49675533       0.46722787       0.44521499 </v>
   <v>       0.39431646       0.48029420       0.43895737 </v>
   <v>      -0.47120304       0.41575497      -0.46089101 </v>
   <v>      -0.44792917      -0.43459282       0.44269107 </v>
  </varray>
 </structure>
 <varray name="primitive_index" >
  <v type="int" >        1 </v>
  <v type="int" >        5 </v>
  <v type="int" >        2 </v>
  <v type="int" >        4 </v>
  <v type="int" >        3 </v>
 </varray>
 <kpoints>
  <generation param="Monkhorst-Pack">
   <v type="int" name="divisions">       2        2        2 </v>
   <v name="usershift">      0.00000000       0.00000000       0.00000000 </v>
   <v name="genvec1">      0.50000000       0.00000000       0.00000000 </v>
   <v name="genvec2">      0.00000000       0.50000000       0.00000000 </v>
   <v name="genvec3">      0.00000000       0.00000000       0.50000000 </v>
   <v name="shift">      0.50000000       0.50000000       0.50000000 </v>
  </generation>
  <varray name="kpointlist" >
   <v>       0.25000000       0.25000000       0.25000000 </v>
   <v>      -0.25000000       0.25000000       0.25000000 </v>
   <v>       0.25000000      -0.25000000       0.25000000 </v>
   <v>      -0.25000000      -0.25000000       0.25000000 </v>
  </varray>
  <varray name="weights" >
   <v>       0.25000000 </v>
   <v>       0.25000000 </v>
   <v>       0.25000000 </v>
   <v>       0.25000000 </v>
  </varray>
 </kpoints>
 <parameters>
  <separator name="general" >
   <i type="string" name="SYSTEM">unknown system</i>
   <i type="logical" name="LCOMPAT"> F  </i>
  </separator>
  <separator name="electronic" >
   <i type="string" name="PREC">a</i>
   <i name="ENMAX">    400.00000000</i>
   <i name="ENAUG">    644.87300000</i>
   <i name="EDIFF">      0.00000100</i>
   <i type="int" name="IALGO">    68</i>
   <i type="int" name="IWAVPR">    12</i>
   <i type="int" name="NBANDS">     8</i>
   <i name="NELECT">      8.00000000</i>
   <i type="int" name="TURBO">     0</i>
   <i type="int" name="IRESTART">     0</i>
   <i type="int" name="NREBOOT">     0</i>
   <i type="int" name="NMIN">     0</i>
   <i name="EREF">      0.00000000</i>
   <separator name="electronic smearing" >
    <i type="int" name="ISMEAR">     0</i>
    <i name="SIGMA">      0.20000000</i>
    <i name="KSPACING">      0.50000000</i>
    <i type="logical" name="KGAMMA"> F  </i>
   </separator>
   <separator name="electronic projectors" >
    <i type="logical" name="LREAL"> F  </i>
    <v name="ROPT">      0.00000000      0.00000000</v>
    <i type="int" name="LMAXPAW">  -100</i>
    <i type="int" name="LMAXMIX">     2</i>
    <i type="logical" name="NLSPLINE"> F  </i>
   </separator>
   <separator name="electronic startup" >
    <i type="int" name="ISTART">     0</i>
    <i type="int" name="ICHARG">     2</i>
    <i type="int" name="INIWAV">     1</i>
   </separator>
   <separator name="electronic spin" >
    <i type="int" name="ISPIN">     1</i>
    <i type="logical" name="LNONCOLLINEAR"> F  </i>
    <v name="MAGMOM">      1.00000000      1.00000000      1.00000000      1.00000000      1.00000000</v>
    <i name="NUPDOWN">     -1.00000000</i>
    <i type="logical" name="LSORBIT"> F  </i>
    <v name="SAXIS">      0.00000000      0.00000000      1.00000000</v>
    <i type="logical" name="LSPIRAL"> F  </i>
    <v name="QSPIRAL">      0.00000000      0.00000000      0.00000000</v>
    <i type="logical" name="LZEROZ"> F  </i>
   </separator>
   <separator name="electronic exchange-correlation" >
    <i type="logical" name="LASPH"> F  </i>
    <i type="logical" name="LMETAGGA"> F  </i>
   </separator>
   <separator name="electronic convergence" >
    <i type="int" name="NELM">   120</i>
    <i type="int" name="NELMDL">    -5</i>
    <i type="int" name="NELMIN">     4</i>
    <i name="ENINI">    400.00000000</i>
    <separator name="electronic convergence detail" >
     <i type="logical" name="LDIAG"> T  </i>
     <i type="logical" name="LSUBROT"> F  </i>
     <i name="WEIMIN">      0.00100000</i>
     <i name="EBREAK">      0.00000003</i>
     <i name="DEPER">      0.30000000</i>
     <i type="int" name="NRMM">     4</i>
     <i name="TIME">      0.40000000</i>
    </separator>
   </separator>
   <separator name="electronic mixer" >
    <i name="AMIX">      0.40000000</i>
    <i name="BMIX">      1.00000000</i>
    <i name="AMIN">      0.10000000</i>
    <i name="AMIX_MAG">      1.60000000</i>
    <i name="BMIX_MAG">      1.00000000</i>
    <separator name="electronic mixer details" >
     <i type="int" name="IMIX">     4</i>
     <i type="logical" name="MIXFIRST"> F  </i>
     <i type="int" name="MAXMIX">   -45</i>
     <i name="WC">    100.00000000</i>
     <i type="int" name="INIMIX">     1</i>
     <i type="int" name="MIXPRE">     1</i>
     <i type="int" name="MREMOVE">     5</i>
    </separator>
   </separator>
   <separator name="electronic dipolcorrection" >
    <i type="logical" name="LDIPOL"> F  </i>
    <i type="logical" name="LMONO"> F  </i>
    <i type="int" name="IDIPOL">     0</i>
    <i name="EPSILON">      1.00000000</i>
    <v name="DIPOL">   -100.00000000   -100.00000000   -100.00000000</v>
    <i name="EFIELD">      0.00000000</i>
   </separator>
  </separator>
  <separator name="grids" >
   <i type="int" name="NGX">    70</i>
   <i type="int" name="NGY">    70</i>
   <i type="int" name="NGZ">    70</i>
   <i type="int" name="NGXF">   140</i>
   <i type="int" name="NGYF">   140</i>
   <i type="int" name="NGZF">   140</i>
   <i type="logical" name="ADDGRID"> F  </i>
  </separator>
  <separator name="ionic" >
   <i type="int" name="NSW">    10</i>
   <i type="int" name="IBRION">     0</i>
   <i type="int" name="MDALGO">     0</i>
   <i type="int" name="ISIF">     2</i>
   <i name="PSTRESS">      0.00000000</i>
   <i name="EDIFFG">      0.00001000</i>
   <i type="int" name="NFREE">     0</i>
   <i name="POTIM">      0.50000000</i>
   <i name="SMASS">     -3.00000000</i>
   <i name="SCALEE">      1.00000000</i>
  </separator>
  <separator name="ionic md" >
   <i name="TEBEG">      0.00010000</i>
   <i name="TEEND">      0.00010000</i>
   <i type="int" name="NBLOCK">     1</i>
   <i type="int" name="KBLOCK">    10</i>
   <i type="int" name="NPACO">   256</i>
   <i name="APACO">     16.00000000</i>
  </separator>
  <separator name="symmetry" >
   <i type="int" name="ISYM">     0</i>
   <i name="SYMPREC">      0.00001000</i>
  </separator>
  <separator name="dos" >
   <i type="int" name="LORBIT">     0</i>
   <v name="RWIGS">     -1.00000000     -1.00000000</v>
   <i type="int" name="NEDOS">   301</i>
   <i name="EMIN">     10.00000000</i>
   <i name="EMAX">    -10.00000000</i>
   <i name="EFERMI">      0.00000000</i>
  </separator>
  <separator name="writing" >
   <i type="int" name="NWRITE">     2</i>
   <i type="logical" name="LWAVE"> F  </i>
   <i type="logical" name="LDOWNSAMPLE"> F  </i>
   <i type="logical" name="LCHARG"> F  </i>
   <i type="logical" name="LPARD"> F  </i>
   <i type="logical" name="LVTOT"> F  </i>
   <i type="logical" name="LVHAR"> F  </i>
   <i type="logical" name="LELF"> F  </i>
   <i type="logical" name="LOPTICS"> F  </i>
   <v name="STM">      0.00000000      0.00000000      0.00000000      0.00000000      0.00000000      0.00000000      0.00000000</v>
  </separator>
  <separator name="performance" >
   <i type="int" name="NPAR">     4</i>
   <i type="int" name="NSIM">     4</i>
   <i type="int" name="NBLK">    -1</i>
   <i type="logical" name="LPLANE"> T  </i>
   <i type="logical" name="LSCALAPACK"> T  </i>
   <i type="logical" name="LSCAAWARE"> F  </i>
   <i type="logical" name="LSCALU"> F  </i>
   <i type="logical" name="LASYNC"> F  </i>
   <i type="logical" name="LORBITALREAL"> F  </i>
  </separator>
  <separator name="miscellaneous" >
   <i type="int" name="IDIOT">     3</i>
   <i type="int" name="ISPECIAL">     0</i>
   <i type="logical" name="LMUSIC"> F  </i>
   <v name="POMASS">      1.00000000     12.01100000</v>
   <v name="DARWINR">      0.00000000      0.00000000</v>
   <v name="DARWINV">      1.00000000      1.00000000</v>
   <i type="logical" name="LCORR"> T  </i>
  </separator>
  <i type="logical" name="GGA_COMPAT"> T  </i>
  <i type="logical" name="LBERRY"> F  </i>
  <i type="int" name="ICORELEVEL">     0</i>
  <i type="logical" name="LDAU"> F  </i>
  <i type="int" name="I_CONSTRAINED_M">     0</i>
  <separator name="electronic exchange-correlation" >
   <i type="string" name="GGA">--</i>
   <i type="int" name="VOSKOWN">     0</i>
   <i type="logical" name="LHFCALC"> F  </i>
   <i type="string" name="PRECFOCK"></i>
   <i type="logical" name="LSYMGRAD"> F  </i>
   <i type="logical" name="LHFONE"> F  </i>
   <i type="logical" name="LRHFCALC"> F  </i>
   <i type="logical" name="LTHOMAS"> F  </i>
   <i type="logical" name="LMODELHF"> F  </i>
   <i name="ENCUT4O">     -1.00000000</i>
   <i type="int" name="EXXOEP">     0</i>
   <i type="int" name="FOURORBIT">     0</i>
   <i name="AEXX">      0.00000000</i>
   <i name="HFALPHA">      0.00000000</i>
   <i name="MCALPHA">      0.00000000</i>
   <i name="ALDAX">      1.00000000</i>
   <i name="AGGAX">      1.00000000</i>
   <i name="ALDAC">      1.00000000</i>
   <i name="AGGAC">      1.00000000</i>
   <i type="int" name="NKREDX">     1</i>
   <i type="int" name="NKREDY">     1</i>
   <i type="int" name="NKREDZ">     1</i>
   <i type="logical" name="SHIFTRED"> F  </i>
   <i type="logical" name="ODDONLY"> F  </i>
   <i type="logical" name="EVENONLY"> F  </i>
   <i type="int" name="LMAXFOCK">     0</i>
   <i type="int" name="NMAXFOCKAE">     0</i>
   <i type="logical" name="LFOCKAEDFT"> F  </i>
   <i name="HFSCREEN">      0.00000000</i>
   <i name="HFSCREENC">      0.00000000</i>
   <i type="int" name="NBANDSGWLOW">     0</i>
  </separator>
  <separator name="vdW DFT" >
   <i type="logical" name="LUSE_VDW"> F  </i>
   <i name="Zab_VDW">     -0.84910000</i>
   <i name="PARAM1">      0.12340000</i>
   <i name="PARAM2">      1.00000000</i>
   <i name="PARAM3">      0.00000000</i>
  </separator>
  <separator name="model GW" >
   <i type="int" name="MODEL_GW">     0</i>
   <i name="MODEL_EPS0">    124.25178174</i>
   <i name="MODEL_ALPHA">      1.00000000</i>
  </separator>
  <separator name="linear response parameters" >
   <i type="logical" name="LEPSILON"> F  </i>
   <i type="logical" name="LRPA"> F  </i>
   <i type="logical" name="LNABLA"> F  </i>
   <i type="logical" name="LVEL"> F  </i>
   <i type="int" name="KINTER">     0</i>
   <i name="CSHIFT">      0.10000000</i>
   <i name="OMEGAMAX">     -1.00000000</i>
   <i name="DEG_THRESHOLD">      0.00200000</i>
   <i name="RTIME">     -0.10000000</i>
   <i name="WPLASMAI">      0.00000000</i>
   <v name="DFIELD">      0.00000000      0.00000000      0.00000000</v>
   <v name="WPLASMA">      0.00000000      0.00000000      0.00000000      0.00000000      0.00000000      0.00000000      0.00000000      0.00000000      0.00000000</v>
  </separator>
  <separator name="orbital magnetization" >
   <i type="logical" name="NUCIND"> F  </i>
   <v name="MAGPOS">      0.00000000      0.00000000      0.00000000</v>
   <i type="logical" name="LNICSALL"> T  </i>
   <i type="logical" name="ORBITALMAG"> F  </i>
   <i type="logical" name="LMAGBLOCH"> F  </i>
   <i type="logical" name="LCHIMAG"> F  </i>
   <i type="logical" name="LGAUGE"> T  </i>
   <i type="int" name="MAGATOM">     0</i>
   <v name="MAGDIPOL">      0.00000000      0.00000000      0.00000000</v>
   <v name="AVECCONST">      0.00000000      0.00000000      0.00000000</v>
  </separator>
  <separator name="response functions" >
   <i type="logical" name="LADDER"> F  </i>
   <i type="logical" name="LRPAFORCE"> F  </i>
   <i type="logical" name="LFXC"> F  </i>
   <i type="logical" name="LHARTREE"> T  </i>
   <i type="int" name="IBSE">     0</i>
   <v type="int" name="KPOINT">    -1     0     0     0</v>
   <i type="logical" name="LTCTE"> F  </i>
   <i type="logical" name="LTETE"> F  </i>
   <i type="logical" name="LTRIPLET"> F  </i>
   <i type="logical" name="LFXCEPS"> F  </i>
   <i type="logical" name="LFXHEG"> F  </i>
   <i type="int" name="NATURALO">     2</i>
   <i type="logical" name="L2ORDER"> F  </i>
   <i type="logical" name="LMP2LT"> F  </i>
   <i type="logical" name="LUSEW"> F  </i>
   <i name="ENCUTGW">     -2.00000000</i>
   <i name="ENCUTGWSOFT">     -2.00000000</i>
   <i name="ENCUTLF">     -1.00000000</i>
   <i type="int" name="LMAXMP2">    -1</i>
   <i name="SCISSOR">      0.00000000</i>
   <i type="int" name="NOMEGA">     0</i>
   <i type="int" name="NOMEGAR">     0</i>
   <i type="int" name="NBANDSGW">    -1</i>
   <i type="int" name="NBANDSO">    -1</i>
   <i type="int" name="NBANDSV">    -1</i>
   <i type="int" name="NELM">   120</i>
   <i type="int" name="NELMHF">     1</i>
   <i type="int" name="DIM">     3</i>
   <i type="int" name="ANTIRES">     0</i>
   <i name="OMEGAMAX">    -30.00000000</i>
   <i name="OMEGAMIN">    -30.00000000</i>
   <i name="OMEGATL">   -200.00000000</i>
   <i type="int" name="OMEGAGRID">   140</i>
   <i name="CSHIFT">     -0.10000000</i>
   <i type="logical" name="SELFENERGY"> F  </i>
   <i type="logical" name="LSPECTRAL"> F  </i>
   <i type="logical" name="LSPECTRALGW"> F  </i>
   <i type="logical" name="LSINGLES"> F  </i>
   <i type="logical" name="LFERMIGW"> F  </i>
   <i type="logical" name="ODDONLYGW"> F  </i>
   <i type="logical" name="EVENONLYGW"> F  </i>
   <i type="int" name="NKREDLFX">     1</i>
   <i type="int" name="NKREDLFY">     1</i>
   <i type="int" name="NKREDLFZ">     1</i>
   <i type="int" name="MAXMEM">  2800</i>
   <i type="int" name="TELESCOPE">     0</i>
   <i type="int" name="TAUPAR">     1</i>
   <i type="int" name="OMEGAPAR">    -1</i>
   <i name="LAMBDA">      1.00000000</i>
  </separator>
  <separator name="External order field" >
   <i name="OFIELD_KAPPA">      0.00000000</i>
   <v name="OFIELD_K">      0.00000000      0.00000000      0.00000000</v>
   <i name="OFIELD_Q6_NEAR">      0.00000000</i>
   <i name="OFIELD_Q6_FAR">      0.00000000</i>
   <i name="OFIELD_A">      0.00000000</i>
  </separator>
 </parameters>
 <atominfo>
  <atoms>       5 </atoms>
  <types>       2 </types>
  <array name="atoms" >
   <dimension dim="1">ion</dimension>
   <field type="string">element</field>
   <field type="int">atomtype</field>
   <set>
    <rc><c>H </c><c>   1</c></rc>
    <rc><c>H </c><c>   1</c></rc>
    <rc><c>H </c><c>   1</c></rc>
    <rc><c>H </c><c>   1</c></rc>
    <rc><c>C </c><c>   2</c></rc>
   </set>
  </array>
  <array name="atomtypes" >
   <dimension dim="1">type</dimension>
   <field type="int">atomspertype</field>
   <field type="string">element</field>
   <field>mass</field>
   <field>valence</field>
   <field type="string">pseudopotential</field>
   <set>
    <rc><c>   4</c><c>H </c><c>      1.00000000</c><c>      1.00000000</c><c>  PAW_PBE H 15Jun2001                   </c></rc>
    <rc><c>   1</c><c>C </c><c>     12.01100000</c><c>      4.00000000</c><c>  PAW_PBE C 08Apr2002                   </c></rc>
   </set>
  </array>
 </atominfo>
 <structure name="initialpos" >
  <crystal>
   <varray name="basis" >
    <v>       9.99205649       0.00000000       0.00000000 </v>
    <v>      -0.21593460      10.20141380       0.00000000 </v>
    <v>       0.15920475       0.07007613      10.15795148 </v>
   </varray>
   <i name="volume">   1035.43151451 </i>
   <varray name="rec_basis" >
    <v>       0.10007950       0.00211840      -0.00158315 </v>
    <v>       0.00000000       0.09802563      -0.00067624 </v>
    <v>       0.00000000       0.00000000       0.09844505 </v>
   </varray>
  </crystal>
  <varray name="positions" >
   <v>       0.53808418       0.40678793       0.36057718 </v>
   <v>       0.39431646       0.48029420       0.43895737 </v>
   <v>       0.55207083       0.56540718       0.44269107 </v>
   <v>       0.52879696       0.41575497       0.53910899 </v>
   <v>       0.50324467       0.46722787       0.44521499 </v>
  </varray>
  <varray name="velocities" >
   <v>      -0.00000040       0.00000063       0.00000047 </v>
   <v>       0.00000015      -0.00000035      -0.00000084 </v>
   <v>      -0.00000004      -0.00000003      -0.00000068 </v>
   <v>       0.00000018      -0.00000035      -0.00000018 </v>
   <v>       0.00000001       0.00000001       0.00000010 </v>
  </varray>
 </structure>
 <calculation>
  <scstep>
   <time name="dav">    0.21    0.23</time>
   <time name="total">    0.39    0.42</time>
   <energy>
    <i name="alphaZ">      0.23396119 </i>
    <i name="ewald">    126.86331835 </i>
    <i name="hartreedc">   -243.67159159 </i>
    <i name="XCdc">     21.92962146 </i>
    <i name="pawpsdc">    117.05815612 </i>
    <i name="pawaedc">   -117.66307307 </i>
    <i name="eentropy">     -0.00000000 </i>
    <i name="bandstr">    -90.67775293 </i>
    <i name="atom">    197.04175453 </i>
    <i name="e_fr_energy">     11.11439406 </i>
    <i name="e_wo_entrp">     11.11439406 </i>
    <i name="e_0_energy">     11.11439406 </i>
   </energy>
  </scstep>
  <scstep>
   <time name="dav">    0.15    0.15</time>
   <time name="total">    0.15    0.15</time>
   <energy>
    <i name="e_fr_energy">    -23.19310237 </i>
    <i name="e_wo_entrp">    -23.19310237 </i>
    <i name="e_0_energy">    -23.19310237 </i>
   </energy>
  </scstep>
  <scstep>
   <time name="dav">    0.15    0.15</time>
   <time name="total">    0.15    0.15</time>
   <energy>
    <i name="e_fr_energy">    -27.17089636 </i>
    <i name="e_wo_entrp">    -27.17089636 </i>
    <i name="e_0_energy">    -27.17089636 </i>
   </energy>
  </scstep>
  <scstep>
   <time name="dav">    0.25    0.25</time>
   <time name="total">    0.25    0.25</time>
   <energy>
    <i name="e_fr_energy">    -27.33966726 </i>
    <i name="e_wo_entrp">    -27.33966726 </i>
    <i name="e_0_energy">    -27.33966726 </i>
   </energy>
  </scstep>
  <scstep>
   <time name="dav">    0.19    0.19</time>
   <time name="total">    0.22    0.22</time>
   <energy>
    <i name="e_fr_energy">    -27.33972794 </i>
    <i name="e_wo_entrp">    -27.33972794 </i>
    <i name="e_0_energy">    -27.33972794 </i>
   </energy>
  </scstep>
  <scstep>
   <time name="diag">    0.04    0.05</time>
   <time name="diis">    0.17    0.17</time>
   <time name="orth">    0.00    0.00</time>
   <time name="total">    0.40    0.41</time>
   <energy>
    <i name="e_fr_energy">    -24.61277016 </i>
    <i name="e_wo_entrp">    -24.61277016 </i>
    <i name="e_0_energy">    -24.61277016 </i>
   </energy>
  </scstep>
  <scstep>
   <time name="diag">    0.04    0.04</time>
   <time name="diis">    0.16    0.16</time>
   <time name="orth">    0.00    0.00</time>
   <time name="total">    0.38    0.38</time>
   <energy>
    <i name="e_fr_energy">    -24.15059688 </i>
    <i name="e_wo_entrp">    -24.15059688 </i>
    <i name="e_0_energy">    -24.15059688 </i>
   </energy>
  </scstep>
  <scstep>
   <time name="diag">    0.04    0.04</time>
   <time name="diis">    0.16    0.16</time>
   <time name="orth">    0.00    0.00</time>
   <time name="total">    0.38    0.38</time>
   <energy>
    <i name="e_fr_energy">    -24.00683620 </i>
    <i name="e_wo_entrp">    -24.00683620 </i>
    <i name="e_0_energy">    -24.00683620 </i>
   </energy>
  </scstep>
  <scstep>
   <time name="diag">    0.04    0.04</time>
   <time name="diis">    0.16    0.16</time>
   <time name="orth">    0.00    0.00</time>
   <time name="total">    0.37    0.38</time>
   <energy>
    <i name="e_fr_energy">    -24.00128990 </i>
    <i name="e_wo_entrp">    -24.00128990 </i>
    <i name="e_0_energy">    -24.00128990 </i>
   </energy>
  </scstep>
  <scstep>
   <time name="diag">    0.04    0.04</time>
   <time name="diis">    0.16    0.16</time>
   <time name="orth">    0.00    0.00</time>
   <time name="total">    0.37    0.37</time>
   <energy>
    <i name="e_fr_energy">    -23.99489027 </i>
    <i name="e_wo_entrp">    -23.99489027 </i>
    <i name="e_0_energy">    -23.99489027 </i>
   </energy>
  </scstep>
  <scstep>
   <time name="diag">    0.04    0.04</time>
   <time name="diis">    0.15    0.15</time>
   <time name="orth">    0.00    0.00</time>
   <time name="total">    0.36    0.36</time>
   <energy>
    <i name="e_fr_energy">    -23.99580703 </i>
    <i name="e_wo_entrp">    -23.99580703 </i>
    <i name="e_0_energy">    -23.99580703 </i>
   </energy>
  </scstep>
  <scstep>
   <time name="diag">    0.04    0.04</time>
   <time name="diis">    0.16    0.16</time>
   <time name="orth">    0.00    0.00</time>
   <time name="total">    0.36    0.36</time>
   <energy>
    <i name="e_fr_energy">    -24.00501454 </i>
    <i name="e_wo_entrp">    -24.00501454 </i>
    <i name="e_0_energy">    -24.00501454 </i>
   </energy>
  </scstep>
  <scstep>
   <time name="diag">    0.04    0.04</time>
   <time name="diis">    0.16    0.16</time>
   <time name="orth">    0.00    0.00</time>
   <time name="total">    0.36    0.36</time>
   <energy>
    <i name="e_fr_energy">    -24.00560232 </i>
    <i name="e_wo_entrp">    -24.00560232 </i>
    <i name="e_0_energy">    -24.00560232 </i>
   </energy>
  </scstep>
  <scstep>
   <time name="diag">    0.04    0.04</time>
   <time name="diis">    0.16    0.16</time>
   <time name="orth">    0.00    0.00</time>
   <time name="total">    0.36    0.36</time>
   <energy>
    <i name="e_fr_energy">    -24.00847639 </i>
    <i name="e_wo_entrp">    -24.00847639 </i>
    <i name="e_0_energy">    -24.00847639 </i>
   </energy>
  </scstep>
  <scstep>
   <time name="diag">    0.04    0.04</time>
   <time name="diis">    0.16    0.16</time>
   <time name="orth">    0.00    0.00</time>
   <time name="total">    0.36    0.36</time>
   <energy>
    <i name="e_fr_energy">    -24.00868741 </i>
    <i name="e_wo_entrp">    -24.00868741 </i>
    <i name="e_0_energy">    -24.00868741 </i>
   </energy>
  </scstep>
  <scstep>
   <time name="diag">    0.04    0.04</time>
   <time name="diis">    0.16    0.16</time>
   <time name="orth">    0.00    0.00</time>
   <time name="total">    0.36    0.36</time>
   <energy>
    <i name="e_fr_energy">    -24.00890521 </i>
    <i name="e_wo_entrp">    -24.00890521 </i>
    <i name="e_0_energy">    -24.00890521 </i>
   </energy>
  </scstep>
  <scstep>
   <time name="diag">    0.04    0.04</time>
   <time name="diis">    0.16    0.16</time>
   <time name="orth">    0.00    0.00</time>
   <time name="total">    0.36    0.36</time>
   <energy>
    <i name="e_fr_energy">    -24.00893132 </i>
    <i name="e_wo_entrp">    -24.00893132 </i>
    <i name="e_0_energy">    -24.00893132 </i>
   </energy>
  </scstep>
  <scstep>
   <time name="diag">    0.04    0.04</time>
   <time name="diis">    0.13    0.13</time>
   <time name="orth">    0.00    0.00</time>
   <time name="total">    0.33    0.33</time>
   <energy>
    <i name="e_fr_energy">    -24.00894594 </i>
    <i name="e_wo_entrp">    -24.00894594 </i>
    <i name="e_0_energy">    -24.00894594 </i>
   </energy>
  </scstep>
  <scstep>
   <time name="diag">    0.04    0.04</time>
   <time name="diis">    0.13    0.13</time>
   <time name="orth">    0.00    0.00</time>
   <time name="total">    0.33    0.33</time>
   <energy>
    <i name="e_fr_energy">    -24.00894850 </i>
    <i name="e_wo_entrp">    -24.00894850 </i>
    <i name="e_0_energy">    -24.00894850 </i>
   </energy>
  </scstep>
  <scstep>
   <time name="diag">    0.04    0.04</time>
   <time name="diis">    0.11    0.11</time>
   <time name="orth">    0.00    0.00</time>
   <time name="total">    0.32    0.32</time>
   <energy>
    <i name="e_fr_energy">    -24.00894981 </i>
    <i name="e_wo_entrp">    -24.00894981 </i>
    <i name="e_0_energy">    -24.00894981 </i>
   </energy>
  </scstep>
  <scstep>
   <time name="diag">    0.04    0.04</time>
   <time name="diis">    0.11    0.11</time>
   <time name="orth">    0.00    0.00</time>
   <time name="total">    0.29    0.29</time>
   <energy>
    <i name="alphaZ">      0.23396119 </i>
    <i name="ewald">    126.86331835 </i>
    <i name="hartreedc">   -282.99673566 </i>
    <i name="XCdc">     24.58686651 </i>
    <i name="pawpsdc">    447.35644693 </i>
    <i name="pawaedc">   -448.13234839 </i>
    <i name="eentropy">     -0.00000000 </i>
    <i name="bandstr">    -88.96221364 </i>
    <i name="atom">    197.04175453 </i>
    <i name="e_fr_energy">    -24.00895017 </i>
    <i name="e_wo_entrp">    -24.00895017 </i>
    <i name="e_0_energy">    -24.00895017 </i>
   </energy>
  </scstep>
  <structure>
   <crystal>
    <varray name="basis" >
     <v>       9.99205649       0.00000000       0.00000000 </v>
     <v>      -0.21593460      10.20141380       0.00000000 </v>
     <v>       0.15920475       0.07007613      10.15795148 </v>
    </varray>
    <i name="volume">   1035.43151451 </i>
    <varray name="rec_basis" >
     <v>       0.10007950       0.00211840      -0.00158315 </v>
     <v>       0.00000000       0.09802563      -0.00067624 </v>
     <v>       0.00000000       0.00000000       0.09844505 </v>
    </varray>
   </crystal>
   <varray name="positions" >
    <v>       0.53808418       0.40678793       0.36057718 </v>
    <v>       0.39431646       0.48029420       0.43895737 </v>
    <v>       0.55207083       0.56540718       0.44269107 </v>
    <v>       0.52879696       0.41575497       0.53910899 </v>
    <v>       0.50324467       0.46722787       0.44521499 </v>
   </varray>
  </structure>
  <varray name="forces" >
   <v>      -0.15629258       0.42230309       0.43522491 </v>
   <v>       0.14251204      -0.13746276       0.07990710 </v>
   <v>       0.01395424      -0.28685391      -0.04609282 </v>
   <v>      -0.26332200       0.36822370      -0.59959772 </v>
   <v>       0.26255805      -0.36639594       0.13056622 </v>
  </varray>
  <varray name="stress" >
   <v>      -1.01073018       0.40821119      -0.19346812 </v>
   <v>       0.40821119      -1.74749253       0.00627569 </v>
   <v>      -0.19346812       0.00627569      -2.03616646 </v>
  </varray>
  <energy>
   <i name="e_fr_energy">    -24.00895017 </i>
   <i name="e_wo_entrp">    -24.00895017 </i>
   <i name="e_0_energy">     -0.00000000 </i>
   <i name="kinetic">      0.00033591 </i>
   <i name="lattice kinetic">      0.00000000 </i>
   <i name="nosepot">      0.00000000 </i>
   <i name="nosekinetic">      0.00000000 </i>
   <i name="total">    -24.00861426 </i>
  </energy>
  <time name="totalsc">    7.46    7.52</time>
 </calculation>
 <calculation>
  <scstep>
   <time name="dav">    0.18    0.18</time>
   <time name="total">    0.35    0.35</time>
   <energy>
    <i name="alphaZ">      0.23396119 </i>
    <i name="ewald">    127.10630626 </i>
    <i name="hartreedc">   -283.14090416 </i>
    <i name="XCdc">     24.59414028 </i>
    <i name="pawpsdc">    447.36014862 </i>
    <i name="pawaedc">   -448.13604736 </i>
    <i name="eentropy">     -0.00000000 </i>
    <i name="bandstr">    -89.07091296 </i>
    <i name="atom">    197.04175453 </i>
    <i name="e_fr_energy">    -24.01155359 </i>
    <i name="e_wo_entrp">    -24.01155359 </i>
    <i name="e_0_energy">    -24.01155359 </i>
   </energy>
  </scstep>
  <scstep>
   <time name="diag">    0.04    0.04</time>
   <time name="diis">    0.16    0.16</time>
   <time name="orth">    0.00    0.00</time>
   <time name="total">    0.37    0.37</time>
   <energy>
    <i name="e_fr_energy">    -24.01153036 </i>
    <i name="e_wo_entrp">    -24.01153036 </i>
    <i name="e_0_energy">    -24.01153036 </i>
   </energy>
  </scstep>
  <scstep>
   <time name="diag">    0.04    0.04</time>
   <time name="diis">    0.16    0.16</time>
   <time name="orth">    0.00    0.00</time>
   <time name="total">    0.37    0.37</time>
   <energy>
    <i name="e_fr_energy">    -24.01152995 </i>
    <i name="e_wo_entrp">    -24.01152995 </i>
    <i name="e_0_energy">    -24.01152995 </i>
   </energy>
  </scstep>
  <scstep>
   <time name="diag">    0.04    0.04</time>
   <time name="diis">    0.13    0.13</time>
   <time name="orth">    0.00    0.00</time>
   <time name="total">    0.32    0.32</time>
   <energy>
    <i name="alphaZ">      0.23396119 </i>
    <i name="ewald">    127.10630626 </i>
    <i name="hartreedc">   -283.21155104 </i>
    <i name="XCdc">     24.59811881 </i>
    <i name="pawpsdc">    448.56551548 </i>
    <i name="pawaedc">   -449.34223951 </i>
    <i name="eentropy">     -0.00000000 </i>
    <i name="bandstr">    -89.00339541 </i>
    <i name="atom">    197.04175453 </i>
    <i name="e_fr_energy">    -24.01152969 </i>
    <i name="e_wo_entrp">    -24.01152969 </i>
    <i name="e_0_energy">    -24.01152969 </i>
   </energy>
  </scstep>
  <structure>
   <crystal>
    <varray name="basis" >
     <v>       9.99205649       0.00000000       0.00000000 </v>
     <v>      -0.21593460      10.20141380       0.00000000 </v>
     <v>       0.15920475       0.07007613      10.15795148 </v>
    </varray>
    <i name="volume">   1035.43151451 </i>
    <varray name="rec_basis" >
     <v>       0.10007950       0.00211840      -0.00158315 </v>
     <v>       0.00000000       0.09802563      -0.00067624 </v>
     <v>       0.00000000       0.00000000       0.09844505 </v>
    </varray>
   </crystal>
   <varray name="positions" >
    <v>       0.53804655       0.40688770       0.36068099 </v>
    <v>       0.39435001       0.48026123       0.43897551 </v>
    <v>       0.55207288       0.56533941       0.44267945 </v>
    <v>       0.52873775       0.41584266       0.53896643 </v>
    <v>       0.50324977       0.46722065       0.44521767 </v>
   </varray>
  </structure>
  <varray name="forces" >
   <v>      -0.14299915       0.39577636       0.40065541 </v>
   <v>       0.13123393      -0.13328481       0.07781608 </v>
   <v>       0.01908688      -0.26846409      -0.04569843 </v>
   <v>      -0.24866339       0.34327372      -0.55453754 </v>
   <v>       0.24067917      -0.33733854       0.12171896 </v>
  </varray>
  <varray name="stress" >
   <v>      -0.97832471       0.38881056      -0.18820962 </v>
   <v>       0.38881056      -1.67607076       0.00356210 </v>
   <v>      -0.18820962       0.00356210      -1.92754206 </v>
  </varray>
  <energy>
   <i name="e_fr_energy">    -24.01152969 </i>
   <i name="e_wo_entrp">    -24.01152969 </i>
   <i name="e_0_energy">     -0.00000000 </i>
   <i name="kinetic">      0.00286840 </i>
   <i name="lattice kinetic">      0.00000000 </i>
   <i name="nosepot">      0.00000000 </i>
   <i name="nosekinetic">      0.00000000 </i>
   <i name="total">    -24.00866129 </i>
  </energy>
  <time name="totalsc">    2.03    2.03</time>
 </calculation>
 <calculation>
  <scstep>
   <time name="dav">    0.20    0.20</time>
   <time name="total">    0.37    0.37</time>
   <energy>
    <i name="alphaZ">      0.23396119 </i>
    <i name="ewald">    127.57577056 </i>
    <i name="hartreedc">   -283.61076350 </i>
    <i name="XCdc">     24.61942183 </i>
    <i name="pawpsdc">    451.41295714 </i>
    <i name="pawaedc">   -452.19107599 </i>
    <i name="eentropy">     -0.00000000 </i>
    <i name="bandstr">    -89.09800341 </i>
    <i name="atom">    197.04175453 </i>
    <i name="e_fr_energy">    -24.01597765 </i>
    <i name="e_wo_entrp">    -24.01597765 </i>
    <i name="e_0_energy">    -24.01597765 </i>
   </energy>
  </scstep>
  <scstep>
   <time name="diag">    0.04    0.04</time>
   <time name="diis">    0.16    0.16</time>
   <time name="orth">    0.00    0.00</time>
   <time name="total">    0.37    0.37</time>
   <energy>
    <i name="e_fr_energy">    -24.01597930 </i>
    <i name="e_wo_entrp">    -24.01597930 </i>
    <i name="e_0_energy">    -24.01597930 </i>
   </energy>
  </scstep>
  <scstep>
   <time name="diag">    0.04    0.04</time>
   <time name="diis">    0.16    0.16</time>
   <time name="orth">    0.00    0.00</time>
   <time name="total">    0.37    0.37</time>
   <energy>
    <i name="e_fr_energy">    -24.01597992 </i>
    <i name="e_wo_entrp">    -24.01597992 </i>
    <i name="e_0_energy">    -24.01597992 </i>
   </energy>
  </scstep>
  <scstep>
   <time name="diag">    0.04    0.04</time>
   <time name="diis">    0.13    0.13</time>
   <time name="orth">    0.00    0.00</time>
   <time name="total">    0.32    0.32</time>
   <energy>
    <i name="alphaZ">      0.23396119 </i>
    <i name="ewald">    127.57577056 </i>
    <i name="hartreedc">   -283.62884946 </i>
    <i name="XCdc">     24.62023023 </i>
    <i name="pawpsdc">    451.48293680 </i>
    <i name="pawaedc">   -452.26126507 </i>
    <i name="eentropy">     -0.00000000 </i>
    <i name="bandstr">    -89.08051908 </i>
    <i name="atom">    197.04175453 </i>
    <i name="e_fr_energy">    -24.01598029 </i>
    <i name="e_wo_entrp">    -24.01598029 </i>
    <i name="e_0_energy">    -24.01598029 </i>
   </energy>
  </scstep>
  <structure>
   <crystal>
    <varray name="basis" >
     <v>       9.99205649       0.00000000       0.00000000 </v>
     <v>      -0.21593460      10.20141380       0.00000000 </v>
     <v>       0.15920475       0.07007613      10.15795148 </v>
    </varray>
    <i name="volume">   1035.43151451 </i>
    <varray name="rec_basis" >
     <v>       0.10007950       0.00211840      -0.00158315 </v>
     <v>       0.00000000       0.09802563      -0.00067624 </v>
     <v>       0.00000000       0.00000000       0.09844505 </v>
    </varray>
   </crystal>
   <varray name="positions" >
    <v>       0.53797490       0.40708041       0.36087995 </v>
    <v>       0.39441428       0.48019661       0.43901213 </v>
    <v>       0.55207835       0.56520823       0.44265697 </v>
    <v>       0.52862239       0.41601243       0.53869219 </v>
    <v>       0.50325954       0.46720677       0.44522276 </v>
   </varray>
  </structure>
  <varray name="forces" >
   <v>      -0.11770732       0.34516301       0.33498388 </v>
   <v>       0.11227052      -0.12562304       0.07385690 </v>
   <v>       0.02794857      -0.23536388      -0.04483340 </v>
   <v>      -0.22032000       0.29510414      -0.46782330 </v>
   <v>       0.19742041      -0.27971247       0.10387499 </v>
  </varray>
  <varray name="stress" >
   <v>      -0.91141736       0.35081687      -0.17800601 </v>
   <v>       0.35081687      -1.53228955      -0.00243794 </v>
   <v>      -0.17800601      -0.00243794      -1.70816129 </v>
  </varray>
  <energy>
   <i name="e_fr_energy">    -24.01598029 </i>
   <i name="e_wo_entrp">    -24.01598029 </i>
   <i name="e_0_energy">     -0.00000000 </i>
   <i name="kinetic">      0.00723831 </i>
   <i name="lattice kinetic">      0.00000000 </i>
   <i name="nosepot">      0.00000000 </i>
   <i name="nosekinetic">      0.00000000 </i>
   <i name="total">    -24.00874197 </i>
  </energy>
  <time name="totalsc">    2.05    2.05</time>
 </calculation>
 <calculation>
  <scstep>
   <time name="dav">    0.18    0.18</time>
   <time name="total">    0.34    0.34</time>
   <energy>
    <i name="alphaZ">      0.23396119 </i>
    <i name="ewald">    128.24138178 </i>
    <i name="hartreedc">   -284.25693813 </i>
    <i name="XCdc">     24.65300744 </i>
    <i name="pawpsdc">    455.22977475 </i>
    <i name="pawaedc">   -456.01079906 </i>
    <i name="eentropy">     -0.00000000 </i>
    <i name="bandstr">    -89.15322620 </i>
    <i name="atom">    197.04175453 </i>
    <i name="e_fr_energy">    -24.02108369 </i>
    <i name="e_wo_entrp">    -24.02108369 </i>
    <i name="e_0_energy">    -24.02108369 </i>
   </energy>
  </scstep>
  <scstep>
   <time name="diag">    0.04    0.04</time>
   <time name="diis">    0.16    0.16</time>
   <time name="orth">    0.00    0.00</time>
   <time name="total">    0.36    0.36</time>
   <energy>
    <i name="e_fr_energy">    -24.02107689 </i>
    <i name="e_wo_entrp">    -24.02107689 </i>
    <i name="e_0_energy">    -24.02107689 </i>
   </energy>
  </scstep>
  <scstep>
   <time name="diag">    0.04    0.04</time>
   <time name="diis">    0.16    0.16</time>
   <time name="orth">    0.00    0.00</time>
   <time name="total">    0.36    0.36</time>
   <energy>
    <i name="e_fr_energy">    -24.02107801 </i>
    <i name="e_wo_entrp">    -24.02107801 </i>
    <i name="e_0_energy">    -24.02107801 </i>
   </energy>
  </scstep>
  <scstep>
   <time name="diag">    0.04    0.04</time>
   <time name="diis">    0.13    0.13</time>
   <time name="orth">    0.00    0.00</time>
   <time name="total">    0.31    0.31</time>
   <energy>
    <i name="alphaZ">      0.23396119 </i>
    <i name="ewald">    128.24138178 </i>
    <i name="hartreedc">   -284.21971727 </i>
    <i name="XCdc">     24.65137545 </i>
    <i name="pawpsdc">    455.25381061 </i>
    <i name="pawaedc">   -456.03438065 </i>
    <i name="eentropy">     -0.00000000 </i>
    <i name="bandstr">    -89.18926421 </i>
    <i name="atom">    197.04175453 </i>
    <i name="e_fr_energy">    -24.02107857 </i>
    <i name="e_wo_entrp">    -24.02107857 </i>
    <i name="e_0_energy">    -24.02107857 </i>
   </energy>
  </scstep>
  <structure>
   <crystal>
    <varray name="basis" >
     <v>       9.99205649       0.00000000       0.00000000 </v>
     <v>      -0.21593460      10.20141380       0.00000000 </v>
     <v>       0.15920475       0.07007613      10.15795148 </v>
    </varray>
    <i name="volume">   1035.43151451 </i>
    <varray name="rec_basis" >
     <v>       0.10007950       0.00211840      -0.00158315 </v>
     <v>       0.00000000       0.09802563      -0.00067624 </v>
     <v>       0.00000000       0.00000000       0.09844505 </v>
    </varray>
   </crystal>
   <varray name="positions" >
    <v>       0.53787533       0.40735419       0.36115845 </v>
    <v>       0.39450474       0.48010217       0.43906628 </v>
    <v>       0.55208954       0.56502148       0.44262384 </v>
    <v>       0.52845715       0.41625274       0.53830686 </v>
    <v>       0.50327312       0.46718738       0.44522990 </v>
   </varray>
  </structure>
  <varray name="forces" >
   <v>      -0.08133586       0.27218787       0.24040359 </v>
   <v>       0.08437275      -0.11439960       0.06800012 </v>
   <v>       0.04067370      -0.18743900      -0.04353423 </v>
   <v>      -0.17922029       0.22531556      -0.34221990 </v>
   <v>       0.13524296      -0.19623930       0.07741421 </v>
  </varray>
  <varray name="stress" >
   <v>      -0.81757347       0.29652264      -0.16300838 </v>
   <v>       0.29652264      -1.32913261      -0.01135325 </v>
   <v>      -0.16300838      -0.01135325      -1.39750570 </v>
  </varray>
  <energy>
   <i name="e_fr_energy">    -24.02107857 </i>
   <i name="e_wo_entrp">    -24.02107857 </i>
   <i name="e_0_energy">     -0.00000000 </i>
   <i name="kinetic">      0.01224656 </i>
   <i name="lattice kinetic">      0.00000000 </i>
   <i name="nosepot">      0.00000000 </i>
   <i name="nosekinetic">      0.00000000 </i>
   <i name="total">    -24.00883201 </i>
  </energy>
  <time name="totalsc">    1.97    1.97</time>
 </calculation>
 <calculation>
  <scstep>
   <time name="dav">    0.15    0.15</time>
   <time name="total">    0.31    0.31</time>
   <energy>
    <i name="alphaZ">      0.23396119 </i>
    <i name="ewald">    129.05806219 </i>
    <i name="hartreedc">   -284.96100620 </i>
    <i name="XCdc">     24.69038084 </i>
    <i name="pawpsdc">    460.22938608 </i>
    <i name="pawaedc">   -461.01297127 </i>
    <i name="eentropy">     -0.00000000 </i>
    <i name="bandstr">    -89.30494986 </i>
    <i name="atom">    197.04175453 </i>
    <i name="e_fr_energy">    -24.02538251 </i>
    <i name="e_wo_entrp">    -24.02538251 </i>
    <i name="e_0_energy">    -24.02538251 </i>
   </energy>
  </scstep>
  <scstep>
   <time name="diag">    0.04    0.04</time>
   <time name="diis">    0.16    0.16</time>
   <time name="orth">    0.00    0.00</time>
   <time name="total">    0.35    0.35</time>
   <energy>
    <i name="e_fr_energy">    -24.02538389 </i>
    <i name="e_wo_entrp">    -24.02538389 </i>
    <i name="e_0_energy">    -24.02538389 </i>
   </energy>
  </scstep>
  <scstep>
   <time name="diag">    0.04    0.04</time>
   <time name="diis">    0.15    0.15</time>
   <time name="orth">    0.00    0.00</time>
   <time name="total">    0.35    0.35</time>
   <energy>
    <i name="e_fr_energy">    -24.02538635 </i>
    <i name="e_wo_entrp">    -24.02538635 </i>
    <i name="e_0_energy">    -24.02538635 </i>
   </energy>
  </scstep>
  <scstep>
   <time name="diag">    0.04    0.04</time>
   <time name="diis">    0.13    0.13</time>
   <time name="orth">    0.00    0.00</time>
   <time name="total">    0.30    0.30</time>
   <energy>
    <i name="alphaZ">      0.23396119 </i>
    <i name="ewald">    129.05806219 </i>
    <i name="hartreedc">   -284.94437127 </i>
    <i name="XCdc">     24.68957681 </i>
    <i name="pawpsdc">    460.13044325 </i>
    <i name="pawaedc">   -460.91385519 </i>
    <i name="eentropy">     -0.00000000 </i>
    <i name="bandstr">    -89.32095847 </i>
    <i name="atom">    197.04175453 </i>
    <i name="e_fr_energy">    -24.02538695 </i>
    <i name="e_wo_entrp">    -24.02538695 </i>
    <i name="e_0_energy">    -24.02538695 </i>
   </energy>
  </scstep>
  <structure>
   <crystal>
    <varray name="basis" >
     <v>       9.99205649       0.00000000       0.00000000 </v>
     <v>      -0.21593460      10.20141380       0.00000000 </v>
     <v>       0.15920475       0.07007613      10.15795148 </v>
    </varray>
    <i name="volume">   1035.43151451 </i>
    <varray name="rec_basis" >
     <v>       0.10007950       0.00211840      -0.00158315 </v>
     <v>       0.00000000       0.09802563      -0.00067624 </v>
     <v>       0.00000000       0.00000000       0.09844505 </v>
    </varray>
   </crystal>
   <varray name="positions" >
    <v>       0.53775660       0.40769194       0.36149404 </v>
    <v>       0.39461472       0.47998058       0.43913658 </v>
    <v>       0.55210976       0.56479048       0.44258038 </v>
    <v>       0.52825110       0.41654690       0.53784026 </v>
    <v>       0.50328932       0.46716413       0.44523858 </v>
   </varray>
  </structure>
  <varray name="forces" >
   <v>      -0.03591459       0.18060807       0.12200905 </v>
   <v>       0.04913329      -0.09994222       0.06035772 </v>
   <v>       0.05618176      -0.12740237      -0.04170278 </v>
   <v>      -0.12726892       0.13729132      -0.18386273 </v>
   <v>       0.05745469      -0.09096519       0.04327645 </v>
  </varray>
  <varray name="stress" >
   <v>      -0.70556346       0.22831641      -0.14378030 </v>
   <v>       0.22831641      -1.08138881      -0.02299346 </v>
   <v>      -0.14378030      -0.02299346      -1.01521696 </v>
  </varray>
  <energy>
   <i name="e_fr_energy">    -24.02538695 </i>
   <i name="e_wo_entrp">    -24.02538695 </i>
   <i name="e_0_energy">     -0.00000000 </i>
   <i name="kinetic">      0.01647779 </i>
   <i name="lattice kinetic">      0.00000000 </i>
   <i name="nosepot">      0.00000000 </i>
   <i name="nosekinetic">      0.00000000 </i>
   <i name="total">    -24.00890916 </i>
  </energy>
  <time name="totalsc">    1.92    1.92</time>
 </calculation>
 <calculation>
  <scstep>
   <time name="dav">    0.18    0.18</time>
   <time name="total">    0.34    0.34</time>
   <energy>
    <i name="alphaZ">      0.23396119 </i>
    <i name="ewald">    129.96725057 </i>
    <i name="hartreedc">   -285.73173013 </i>
    <i name="XCdc">     24.73125169 </i>
    <i name="pawpsdc">    465.42673036 </i>
    <i name="pawaedc">   -466.21328588 </i>
    <i name="eentropy">     -0.00000000 </i>
    <i name="bandstr">    -89.48358555 </i>
    <i name="atom">    197.04175453 </i>
    <i name="e_fr_energy">    -24.02765321 </i>
    <i name="e_wo_entrp">    -24.02765321 </i>
    <i name="e_0_energy">    -24.02765321 </i>
   </energy>
  </scstep>
  <scstep>
   <time name="diag">    0.04    0.04</time>
   <time name="diis">    0.16    0.16</time>
   <time name="orth">    0.00    0.00</time>
   <time name="total">    0.36    0.36</time>
   <energy>
    <i name="e_fr_energy">    -24.02765673 </i>
    <i name="e_wo_entrp">    -24.02765673 </i>
    <i name="e_0_energy">    -24.02765673 </i>
   </energy>
  </scstep>
  <scstep>
   <time name="diag">    0.04    0.04</time>
   <time name="diis">    0.13    0.13</time>
   <time name="orth">    0.00    0.00</time>
   <time name="total">    0.34    0.34</time>
   <energy>
    <i name="e_fr_energy">    -24.02765944 </i>
    <i name="e_wo_entrp">    -24.02765944 </i>
    <i name="e_0_energy">    -24.02765944 </i>
   </energy>
  </scstep>
  <scstep>
   <time name="diag">    0.04    0.04</time>
   <time name="diis">    0.13    0.13</time>
   <time name="orth">    0.00    0.00</time>
   <time name="total">    0.34    0.34</time>
   <energy>
    <i name="e_fr_energy">    -24.02766108 </i>
    <i name="e_wo_entrp">    -24.02766108 </i>
    <i name="e_0_energy">    -24.02766108 </i>
   </energy>
  </scstep>
  <scstep>
   <time name="diag">    0.04    0.04</time>
   <time name="diis">    0.13    0.13</time>
   <time name="orth">    0.00    0.00</time>
   <time name="total">    0.34    0.34</time>
   <energy>
    <i name="e_fr_energy">    -24.02766354 </i>
    <i name="e_wo_entrp">    -24.02766354 </i>
    <i name="e_0_energy">    -24.02766354 </i>
   </energy>
  </scstep>
  <scstep>
   <time name="diag">    0.04    0.04</time>
   <time name="diis">    0.11    0.11</time>
   <time name="orth">    0.00    0.00</time>
   <time name="total">    0.29    0.29</time>
   <energy>
    <i name="alphaZ">      0.23396119 </i>
    <i name="ewald">    129.96725057 </i>
    <i name="hartreedc">   -285.74190601 </i>
    <i name="XCdc">     24.73179358 </i>
    <i name="pawpsdc">    465.50560057 </i>
    <i name="pawaedc">   -466.29218977 </i>
    <i name="eentropy">     -0.00000000 </i>
    <i name="bandstr">    -89.47392878 </i>
    <i name="atom">    197.04175453 </i>
    <i name="e_fr_energy">    -24.02766412 </i>
    <i name="e_wo_entrp">    -24.02766412 </i>
    <i name="e_0_energy">    -24.02766412 </i>
   </energy>
  </scstep>
  <structure>
   <crystal>
    <varray name="basis" >
     <v>       9.99205649       0.00000000       0.00000000 </v>
     <v>      -0.21593460      10.20141380       0.00000000 </v>
     <v>       0.15920475       0.07007613      10.15795148 </v>
    </varray>
    <i name="volume">   1035.43151451 </i>
    <varray name="rec_basis" >
     <v>       0.10007950       0.00211840      -0.00158315 </v>
     <v>       0.00000000       0.09802563      -0.00067624 </v>
     <v>       0.00000000       0.00000000       0.09844505 </v>
    </varray>
   </crystal>
   <varray name="positions" >
    <v>       0.53762967       0.40807221       0.36185860 </v>
    <v>       0.39473583       0.47983527       0.43922122 </v>
    <v>       0.55214306       0.56452944       0.44252701 </v>
    <v>       0.52801574       0.41687382       0.53733000 </v>
    <v>       0.50330663       0.46713908       0.44524811 </v>
   </varray>
  </structure>
  <varray name="forces" >
   <v>       0.01526809       0.07667743      -0.01142419 </v>
   <v>       0.00967106      -0.08302297       0.05124145 </v>
   <v>       0.07275330      -0.06006406      -0.03922529 </v>
   <v>      -0.06766042       0.03681980      -0.00359664 </v>
   <v>      -0.03048723       0.02925855       0.00306640 </v>
  </varray>
  <varray name="stress" >
   <v>      -0.57748293       0.15072553      -0.12102714 </v>
   <v>       0.15072554      -0.80036368      -0.03661854 </v>
   <v>      -0.12102714      -0.03661854      -0.58293152 </v>
  </varray>
  <energy>
   <i name="e_fr_energy">    -24.02766412 </i>
   <i name="e_wo_entrp">    -24.02766412 </i>
   <i name="e_0_energy">     -0.00000000 </i>
   <i name="kinetic">      0.01870692 </i>
   <i name="lattice kinetic">      0.00000000 </i>
   <i name="nosepot">      0.00000000 </i>
   <i name="nosekinetic">      0.00000000 </i>
   <i name="total">    -24.00895719 </i>
  </energy>
  <time name="totalsc">    2.62    2.62</time>
 </calculation>
 <calculation>
  <scstep>
   <time name="dav">    0.15    0.15</time>
   <time name="total">    0.33    0.33</time>
   <energy>
    <i name="alphaZ">      0.23396119 </i>
    <i name="ewald">    130.90021480 </i>
    <i name="hartreedc">   -286.55189832 </i>
    <i name="XCdc">     24.77484136 </i>
    <i name="pawpsdc">    471.26382282 </i>
    <i name="pawaedc">   -472.05356796 </i>
    <i name="eentropy">     -0.00000000 </i>
    <i name="bandstr">    -89.63634573 </i>
    <i name="atom">    197.04175453 </i>
    <i name="e_fr_energy">    -24.02721730 </i>
    <i name="e_wo_entrp">    -24.02721730 </i>
    <i name="e_0_energy">    -24.02721730 </i>
   </energy>
  </scstep>
  <scstep>
   <time name="diag">    0.04    0.04</time>
   <time name="diis">    0.16    0.16</time>
   <time name="orth">    0.00    0.00</time>
   <time name="total">    0.37    0.37</time>
   <energy>
    <i name="e_fr_energy">    -24.02722160 </i>
    <i name="e_wo_entrp">    -24.02722160 </i>
    <i name="e_0_energy">    -24.02722160 </i>
   </energy>
  </scstep>
  <scstep>
   <time name="diag">    0.04    0.04</time>
   <time name="diis">    0.13    0.13</time>
   <time name="orth">    0.00    0.00</time>
   <time name="total">    0.34    0.34</time>
   <energy>
    <i name="e_fr_energy">    -24.02722544 </i>
    <i name="e_wo_entrp">    -24.02722544 </i>
    <i name="e_0_energy">    -24.02722544 </i>
   </energy>
  </scstep>
  <scstep>
   <time name="diag">    0.04    0.04</time>
   <time name="diis">    0.13    0.13</time>
   <time name="orth">    0.00    0.00</time>
   <time name="total">    0.34    0.34</time>
   <energy>
    <i name="e_fr_energy">    -24.02722809 </i>
    <i name="e_wo_entrp">    -24.02722809 </i>
    <i name="e_0_energy">    -24.02722809 </i>
   </energy>
  </scstep>
  <scstep>
   <time name="diag">    0.04    0.04</time>
   <time name="diis">    0.12    0.13</time>
   <time name="orth">    0.00    0.00</time>
   <time name="total">    0.34    0.34</time>
   <energy>
    <i name="e_fr_energy">    -24.02723267 </i>
    <i name="e_wo_entrp">    -24.02723267 </i>
    <i name="e_0_energy">    -24.02723267 </i>
   </energy>
  </scstep>
  <scstep>
   <time name="diag">    0.04    0.04</time>
   <time name="diis">    0.12    0.12</time>
   <time name="orth">    0.00    0.00</time>
   <time name="total">    0.34    0.34</time>
   <energy>
    <i name="e_fr_energy">    -24.02723557 </i>
    <i name="e_wo_entrp">    -24.02723557 </i>
    <i name="e_0_energy">    -24.02723557 </i>
   </energy>
  </scstep>
  <scstep>
   <time name="diag">    0.04    0.04</time>
   <time name="diis">    0.12    0.12</time>
   <time name="orth">    0.00    0.00</time>
   <time name="total">    0.33    0.33</time>
   <energy>
    <i name="e_fr_energy">    -24.02723732 </i>
    <i name="e_wo_entrp">    -24.02723732 </i>
    <i name="e_0_energy">    -24.02723732 </i>
   </energy>
  </scstep>
  <scstep>
   <time name="diag">    0.04    0.04</time>
   <time name="diis">    0.11    0.11</time>
   <time name="orth">    0.00    0.00</time>
   <time name="total">    0.29    0.29</time>
   <energy>
    <i name="alphaZ">      0.23396119 </i>
    <i name="ewald">    130.90021480 </i>
    <i name="hartreedc">   -286.56149218 </i>
    <i name="XCdc">     24.77514151 </i>
    <i name="pawpsdc">    471.13655284 </i>
    <i name="pawaedc">   -471.92643704 </i>
    <i name="eentropy">     -0.00000000 </i>
    <i name="bandstr">    -89.62693300 </i>
    <i name="atom">    197.04175453 </i>
    <i name="e_fr_energy">    -24.02723734 </i>
    <i name="e_wo_entrp">    -24.02723734 </i>
    <i name="e_0_energy">    -24.02723734 </i>
   </energy>
  </scstep>
  <structure>
   <crystal>
    <varray name="basis" >
     <v>       9.99205649       0.00000000       0.00000000 </v>
     <v>      -0.21593460      10.20141380       0.00000000 </v>
     <v>       0.15920475       0.07007613      10.15795148 </v>
    </varray>
    <i name="volume">   1035.43151451 </i>
    <varray name="rec_basis" >
     <v>       0.10007950       0.00211840      -0.00158315 </v>
     <v>       0.00000000       0.09802563      -0.00067624 </v>
     <v>       0.00000000       0.00000000       0.09844505 </v>
    </varray>
   </crystal>
   <varray name="positions" >
    <v>       0.53750686       0.40847063       0.36222044 </v>
    <v>       0.39485866       0.47967025       0.43931801 </v>
    <v>       0.55219377       0.56425427       0.44246433 </v>
    <v>       0.52776426       0.41720947       0.53681889 </v>
    <v>       0.50332334       0.46711461       0.44525769 </v>
   </varray>
  </structure>
  <varray name="forces" >
   <v>       0.06849830      -0.03269752      -0.15040845 </v>
   <v>      -0.03185875      -0.06430414       0.04097356 </v>
   <v>       0.08902787       0.01063285      -0.03600548 </v>
   <v>      -0.00425836      -0.06918040       0.18592905 </v>
   <v>      -0.12180283       0.15538472      -0.04034805 </v>
  </varray>
  <varray name="stress" >
   <v>      -0.44660795       0.06872454      -0.09587654 </v>
   <v>       0.06872454      -0.50999559      -0.05110318 </v>
   <v>      -0.09587654      -0.05110318      -0.13721755 </v>
  </varray>
  <energy>
   <i name="e_fr_energy">    -24.02723734 </i>
   <i name="e_wo_entrp">    -24.02723734 </i>
   <i name="e_0_energy">     -0.00000000 </i>
   <i name="kinetic">      0.01828622 </i>
   <i name="lattice kinetic">      0.00000000 </i>
   <i name="nosepot">      0.00000000 </i>
   <i name="nosekinetic">      0.00000000 </i>
   <i name="total">    -24.00895111 </i>
  </energy>
  <time name="totalsc">    3.29    3.29</time>
 </calculation>
 <calculation>
  <scstep>
   <time name="dav">    0.16    0.16</time>
   <time name="total">    0.32    0.32</time>
   <energy>
    <i name="alphaZ">      0.23396119 </i>
    <i name="ewald">    131.78207695 </i>
    <i name="hartreedc">   -287.33552450 </i>
    <i name="XCdc">     24.81602306 </i>
    <i name="pawpsdc">    476.53406133 </i>
    <i name="pawaedc">   -477.32714901 </i>
    <i name="eentropy">     -0.00000000 </i>
    <i name="bandstr">    -89.76948425 </i>
    <i name="atom">    197.04175453 </i>
    <i name="e_fr_energy">    -24.02428069 </i>
    <i name="e_wo_entrp">    -24.02428069 </i>
    <i name="e_0_energy">    -24.02428069 </i>
   </energy>
  </scstep>
  <scstep>
   <time name="diag">    0.04    0.04</time>
   <time name="diis">    0.16    0.16</time>
   <time name="orth">    0.00    0.00</time>
   <time name="total">    0.37    0.37</time>
   <energy>
    <i name="e_fr_energy">    -24.02428184 </i>
    <i name="e_wo_entrp">    -24.02428184 </i>
    <i name="e_0_energy">    -24.02428184 </i>
   </energy>
  </scstep>
  <scstep>
   <time name="diag">    0.04    0.04</time>
   <time name="diis">    0.13    0.13</time>
   <time name="orth">    0.00    0.00</time>
   <time name="total">    0.33    0.33</time>
   <energy>
    <i name="e_fr_energy">    -24.02428212 </i>
    <i name="e_wo_entrp">    -24.02428212 </i>
    <i name="e_0_energy">    -24.02428212 </i>
   </energy>
  </scstep>
  <scstep>
   <time name="diag">    0.04    0.04</time>
   <time name="diis">    0.12    0.12</time>
   <time name="orth">    0.00    0.00</time>
   <time name="total">    0.30    0.30</time>
   <energy>
    <i name="alphaZ">      0.23396119 </i>
    <i name="ewald">    131.78207695 </i>
    <i name="hartreedc">   -287.33320440 </i>
    <i name="XCdc">     24.81597314 </i>
    <i name="pawpsdc">    476.55517282 </i>
    <i name="pawaedc">   -477.34818508 </i>
    <i name="eentropy">     -0.00000000 </i>
    <i name="bandstr">    -89.77183173 </i>
    <i name="atom">    197.04175453 </i>
    <i name="e_fr_energy">    -24.02428258 </i>
    <i name="e_wo_entrp">    -24.02428258 </i>
    <i name="e_0_energy">    -24.02428258 </i>
   </energy>
  </scstep>
  <structure>
   <crystal>
    <varray name="basis" >
     <v>       9.99205649       0.00000000       0.00000000 </v>
     <v>      -0.21593460      10.20141380       0.00000000 </v>
     <v>       0.15920475       0.07007613      10.15795148 </v>
    </varray>
    <i name="volume">   1035.43151451 </i>
    <varray name="rec_basis" >
     <v>       0.10007950       0.00211840      -0.00158315 </v>
     <v>       0.00000000       0.09802563      -0.00067624 </v>
     <v>       0.00000000       0.00000000       0.09844505 </v>
    </varray>
   </crystal>
   <varray name="positions" >
    <v>       0.53740100       0.40886157       0.36254657 </v>
    <v>       0.39497332       0.47948996       0.43942454 </v>
    <v>       0.55226617       0.56398166       0.44239309 </v>
    <v>       0.52751069       0.41752845       0.53635192 </v>
    <v>       0.50333769       0.46709321       0.44526648 </v>
   </varray>
  </structure>
  <varray name="forces" >
   <v>       0.11895431      -0.13862841      -0.28243326 </v>
   <v>      -0.07205210      -0.04454466       0.02988033 </v>
   <v>       0.10283606       0.07904181      -0.03190986 </v>
   <v>       0.05800272      -0.17171893       0.36784310 </v>
   <v>      -0.20808213       0.27561950      -0.08313841 </v>
  </varray>
  <varray name="stress" >
   <v>      -0.31995619      -0.01190667      -0.06934924 </v>
   <v>      -0.01190667      -0.22918157      -0.06476374 </v>
   <v>      -0.06934924      -0.06476373       0.28707722 </v>
  </varray>
  <energy>
   <i name="e_fr_energy">    -24.02428258 </i>
   <i name="e_wo_entrp">    -24.02428258 </i>
   <i name="e_0_energy">     -0.00000000 </i>
   <i name="kinetic">      0.01539178 </i>
   <i name="lattice kinetic">      0.00000000 </i>
   <i name="nosepot">      0.00000000 </i>
   <i name="nosekinetic">      0.00000000 </i>
   <i name="total">    -24.00889080 </i>
  </energy>
  <time name="totalsc">    1.92    1.92</time>
 </calculation>
 <calculation>
  <scstep>
   <time name="dav">    0.16    0.16</time>
   <time name="total">    0.32    0.32</time>
   <energy>
    <i name="alphaZ">      0.23396119 </i>
    <i name="ewald">    132.53831115 </i>
    <i name="hartreedc">   -288.00037940 </i>
    <i name="XCdc">     24.85120924 </i>
    <i name="pawpsdc">    481.36257494 </i>
    <i name="pawaedc">   -482.15838395 </i>
    <i name="eentropy">     -0.00000000 </i>
    <i name="bandstr">    -89.88886469 </i>
    <i name="atom">    197.04175453 </i>
    <i name="e_fr_energy">    -24.01981698 </i>
    <i name="e_wo_entrp">    -24.01981698 </i>
    <i name="e_0_energy">    -24.01981698 </i>
   </energy>
  </scstep>
  <scstep>
   <time name="diag">    0.04    0.04</time>
   <time name="diis">    0.16    0.16</time>
   <time name="orth">    0.00    0.00</time>
   <time name="total">    0.36    0.36</time>
   <energy>
    <i name="e_fr_energy">    -24.01981784 </i>
    <i name="e_wo_entrp">    -24.01981784 </i>
    <i name="e_0_energy">    -24.01981784 </i>
   </energy>
  </scstep>
  <scstep>
   <time name="diag">    0.04    0.04</time>
   <time name="diis">    0.13    0.13</time>
   <time name="orth">    0.00    0.00</time>
   <time name="total">    0.33    0.33</time>
   <energy>
    <i name="e_fr_energy">    -24.01981792 </i>
    <i name="e_wo_entrp">    -24.01981792 </i>
    <i name="e_0_energy">    -24.01981792 </i>
   </energy>
  </scstep>
  <scstep>
   <time name="diag">    0.04    0.04</time>
   <time name="diis">    0.13    0.13</time>
   <time name="orth">    0.00    0.00</time>
   <time name="total">    0.30    0.30</time>
   <energy>
    <i name="alphaZ">      0.23396119 </i>
    <i name="ewald">    132.53831115 </i>
    <i name="hartreedc">   -287.99341054 </i>
    <i name="XCdc">     24.85092626 </i>
    <i name="pawpsdc">    481.27993422 </i>
    <i name="pawaedc">   -482.07565098 </i>
    <i name="eentropy">     -0.00000000 </i>
    <i name="bandstr">    -89.89564417 </i>
    <i name="atom">    197.04175453 </i>
    <i name="e_fr_energy">    -24.01981834 </i>
    <i name="e_wo_entrp">    -24.01981834 </i>
    <i name="e_0_energy">    -24.01981834 </i>
   </energy>
  </scstep>
  <structure>
   <crystal>
    <varray name="basis" >
     <v>       9.99205649       0.00000000       0.00000000 </v>
     <v>      -0.21593460      10.20141380       0.00000000 </v>
     <v>       0.15920475       0.07007613      10.15795148 </v>
    </varray>
    <i name="volume">   1035.43151451 </i>
    <varray name="rec_basis" >
     <v>       0.10007950       0.00211840      -0.00158315 </v>
     <v>       0.00000000       0.09802563      -0.00067624 </v>
     <v>       0.00000000       0.00000000       0.09844505 </v>
    </varray>
   </crystal>
   <varray name="positions" >
    <v>       0.53732423       0.40922019       0.36280562 </v>
    <v>       0.39507025       0.47929909       0.43953816 </v>
    <v>       0.55236393       0.56372781       0.44231428 </v>
    <v>       0.52726884       0.41780623       0.53597230 </v>
    <v>       0.50334801       0.46707726       0.44527362 </v>
   </varray>
  </structure>
  <varray name="forces" >
   <v>       0.16190677      -0.23237498      -0.39524955 </v>
   <v>      -0.10860391      -0.02445161       0.01830820 </v>
   <v>       0.11269883       0.14087262      -0.02687811 </v>
   <v>       0.11405323      -0.26146558       0.52467873 </v>
   <v>      -0.28029432       0.37723535      -0.12053993 </v>
  </varray>
  <varray name="stress" >
   <v>      -0.20983345      -0.08490069      -0.04272055 </v>
   <v>      -0.08490069       0.01745541      -0.07550241 </v>
   <v>      -0.04272055      -0.07550241       0.64782314 </v>
  </varray>
  <energy>
   <i name="e_fr_energy">    -24.01981834 </i>
   <i name="e_wo_entrp">    -24.01981834 </i>
   <i name="e_0_energy">     -0.00000000 </i>
   <i name="kinetic">      0.01102420 </i>
   <i name="lattice kinetic">      0.00000000 </i>
   <i name="nosepot">      0.00000000 </i>
   <i name="nosekinetic">      0.00000000 </i>
   <i name="total">    -24.00879415 </i>
  </energy>
  <time name="totalsc">    1.91    1.91</time>
 </calculation>
 <calculation>
  <scstep>
   <time name="dav">    0.20    0.20</time>
   <time name="total">    0.36    0.36</time>
   <energy>
    <i name="alphaZ">      0.23396119 </i>
    <i name="ewald">    133.10183043 </i>
    <i name="hartreedc">   -288.48571555 </i>
    <i name="XCdc">     24.87698849 </i>
    <i name="pawpsdc">    484.92352088 </i>
    <i name="pawaedc">   -485.72129324 </i>
    <i name="eentropy">     -0.00000000 </i>
    <i name="bandstr">    -89.98645339 </i>
    <i name="atom">    197.04175453 </i>
    <i name="e_fr_energy">    -24.01540666 </i>
    <i name="e_wo_entrp">    -24.01540666 </i>
    <i name="e_0_energy">    -24.01540666 </i>
   </energy>
  </scstep>
  <scstep>
   <time name="diag">    0.04    0.04</time>
   <time name="diis">    0.15    0.15</time>
   <time name="orth">    0.00    0.00</time>
   <time name="total">    0.35    0.35</time>
   <energy>
    <i name="e_fr_energy">    -24.01540729 </i>
    <i name="e_wo_entrp">    -24.01540729 </i>
    <i name="e_0_energy">    -24.01540729 </i>
   </energy>
  </scstep>
  <scstep>
   <time name="diag">    0.04    0.04</time>
   <time name="diis">    0.13    0.13</time>
   <time name="orth">    0.00    0.00</time>
   <time name="total">    0.33    0.33</time>
   <energy>
    <i name="e_fr_energy">    -24.01540730 </i>
    <i name="e_wo_entrp">    -24.01540730 </i>
    <i name="e_0_energy">    -24.01540730 </i>
   </energy>
  </scstep>
  <scstep>
   <time name="diag">    0.04    0.04</time>
   <time name="diis">    0.12    0.12</time>
   <time name="orth">    0.00    0.00</time>
   <time name="total">    0.30    0.30</time>
   <energy>
    <i name="alphaZ">      0.23396119 </i>
    <i name="ewald">    133.10183043 </i>
    <i name="hartreedc">   -288.48518582 </i>
    <i name="XCdc">     24.87697622 </i>
    <i name="pawpsdc">    484.85782561 </i>
    <i name="pawaedc">   -485.65559109 </i>
    <i name="eentropy">     -0.00000000 </i>
    <i name="bandstr">    -89.98697859 </i>
    <i name="atom">    197.04175453 </i>
    <i name="e_fr_energy">    -24.01540751 </i>
    <i name="e_wo_entrp">    -24.01540751 </i>
    <i name="e_0_energy">    -24.01540751 </i>
   </energy>
  </scstep>
  <structure>
   <crystal>
    <varray name="basis" >
     <v>       9.99205649       0.00000000       0.00000000 </v>
     <v>      -0.21593460      10.20141380       0.00000000 </v>
     <v>       0.15920475       0.07007613      10.15795148 </v>
    </varray>
    <i name="volume">   1035.43151451 </i>
    <varray name="rec_basis" >
     <v>       0.10007950       0.00211840      -0.00158315 </v>
     <v>       0.00000000       0.09802563      -0.00067624 </v>
     <v>       0.00000000       0.00000000       0.09844505 </v>
    </varray>
   </crystal>
   <varray name="positions" >
    <v>       0.53728688       0.40952452       0.36297082 </v>
    <v>       0.39514077       0.47910241       0.43965612 </v>
    <v>       0.55248972       0.56350731       0.44222907 </v>
    <v>       0.52705119       0.41802134       0.53571727 </v>
    <v>       0.50335290       0.46706874       0.44527837 </v>
   </varray>
  </structure>
  <varray name="forces" >
   <v>       0.19258734      -0.30523769      -0.47660999 </v>
   <v>      -0.13858220      -0.00480617       0.00666305 </v>
   <v>       0.11687199       0.19129673      -0.02086587 </v>
   <v>       0.15878859      -0.32903023       0.63879369 </v>
   <v>      -0.32984322       0.44771710      -0.14768381 </v>
  </varray>
  <varray name="stress" >
   <v>      -0.12517994      -0.14478538      -0.01708518 </v>
   <v>      -0.14478538       0.21017061      -0.08117298 </v>
   <v>      -0.01708517      -0.08117298       0.90830466 </v>
  </varray>
  <energy>
   <i name="e_fr_energy">    -24.01540751 </i>
   <i name="e_wo_entrp">    -24.01540751 </i>
   <i name="e_0_energy">     -0.00000000 </i>
   <i name="kinetic">      0.00671147 </i>
   <i name="lattice kinetic">      0.00000000 </i>
   <i name="nosepot">      0.00000000 </i>
   <i name="nosekinetic">      0.00000000 </i>
   <i name="total">    -24.00869603 </i>
  </energy>
  <dos>
   <i name="efermi">     -8.35246541 </i>
   <total>
    <array>
     <dimension dim="1">gridpoints</dimension>
     <dimension dim="2">spin</dimension>
     <field>energy</field>
     <field>total</field>
     <field>integrated</field>
     <set>
      <set comment="spin 1">
       <r>   -18.9801     0.0000     0.0000 </r>
       <r>   -18.9078     0.0000     0.0000 </r>
       <r>   -18.8355     0.0000     0.0000 </r>
       <r>   -18.7632     0.0000     0.0000 </r>
       <r>   -18.6909     0.0000     0.0000 </r>
       <r>   -18.6186     0.0000     0.0000 </r>
       <r>   -18.5463     0.0000     0.0000 </r>
       <r>   -18.4740     0.0000     0.0000 </r>
       <r>   -18.4017     0.0000     0.0000 </r>
       <r>   -18.3294     0.0000     0.0000 </r>
       <r>   -18.2571     0.0000     0.0000 </r>
       <r>   -18.1848     0.0000     0.0000 </r>
       <r>   -18.1125     0.0000     0.0000 </r>
       <r>   -18.0402     0.0000     0.0000 </r>
       <r>   -17.9679     0.0000     0.0000 </r>
       <r>   -17.8956     0.0000     0.0000 </r>
       <r>   -17.8233     0.0000     0.0000 </r>
       <r>   -17.7510     0.0000     0.0000 </r>
       <r>   -17.6787     0.0001     0.0000 </r>
       <r>   -17.6064     0.0010     0.0001 </r>
       <r>   -17.5342     0.0090     0.0007 </r>
       <r>   -17.4619     0.0647     0.0054 </r>
       <r>   -17.3896     0.3629     0.0315 </r>
       <r>   -17.3173     1.5782     0.1450 </r>
       <r>   -17.2450     5.3267     0.5282 </r>
       <r>   -17.1727    13.9567     1.5321 </r>
       <r>   -17.1004    28.3945     3.5745 </r>
       <r>   -17.0281    44.8647     6.8012 </r>
       <r>   -16.9558    55.0651    10.7612 </r>
       <r>   -16.8835    52.5072    14.5368 </r>
       <r>   -16.8112    38.9037    17.3340 </r>
       <r>   -16.7389    22.3996    18.9444 </r>
       <r>   -16.6666    10.0231    19.6649 </r>
       <r>   -16.5943     3.4858    19.9154 </r>
       <r>   -16.5220     0.9422    19.9831 </r>
       <r>   -16.4497     0.1980    19.9974 </r>
       <r>   -16.3774     0.0323    19.9997 </r>
       <r>   -16.3051     0.0041    20.0000 </r>
       <r>   -16.2328     0.0004    20.0000 </r>
       <r>   -16.1605     0.0000    20.0000 </r>
       <r>   -16.0882     0.0000    20.0000 </r>
       <r>   -16.0159     0.0000    20.0000 </r>
       <r>   -15.9436     0.0000    20.0000 </r>
       <r>   -15.8714     0.0000    20.0000 </r>
       <r>   -15.7991     0.0000    20.0000 </r>
       <r>   -15.7268     0.0000    20.0000 </r>
       <r>   -15.6545     0.0000    20.0000 </r>
       <r>   -15.5822     0.0000    20.0000 </r>
       <r>   -15.5099     0.0000    20.0000 </r>
       <r>   -15.4376     0.0000    20.0000 </r>
       <r>   -15.3653     0.0000    20.0000 </r>
       <r>   -15.2930     0.0000    20.0000 </r>
       <r>   -15.2207     0.0000    20.0000 </r>
       <r>   -15.1484     0.0000    20.0000 </r>
       <r>   -15.0761     0.0000    20.0000 </r>
       <r>   -15.0038     0.0000    20.0000 </r>
       <r>   -14.9315     0.0000    20.0000 </r>
       <r>   -14.8592     0.0000    20.0000 </r>
       <r>   -14.7869     0.0000    20.0000 </r>
       <r>   -14.7146     0.0000    20.0000 </r>
       <r>   -14.6423     0.0000    20.0000 </r>
       <r>   -14.5700     0.0000    20.0000 </r>
       <r>   -14.4977     0.0000    20.0000 </r>
       <r>   -14.4254     0.0000    20.0000 </r>
       <r>   -14.3531     0.0000    20.0000 </r>
       <r>   -14.2808     0.0000    20.0000 </r>
       <r>   -14.2086     0.0000    20.0000 </r>
       <r>   -14.1363     0.0000    20.0000 </r>
       <r>   -14.0640     0.0000    20.0000 </r>
       <r>   -13.9917     0.0000    20.0000 </r>
       <r>   -13.9194     0.0000    20.0000 </r>
       <r>   -13.8471     0.0000    20.0000 </r>
       <r>   -13.7748     0.0000    20.0000 </r>
       <r>   -13.7025     0.0000    20.0000 </r>
       <r>   -13.6302     0.0000    20.0000 </r>
       <r>   -13.5579     0.0000    20.0000 </r>
       <r>   -13.4856     0.0000    20.0000 </r>
       <r>   -13.4133     0.0000    20.0000 </r>
       <r>   -13.3410     0.0000    20.0000 </r>
       <r>   -13.2687     0.0000    20.0000 </r>
       <r>   -13.1964     0.0000    20.0000 </r>
       <r>   -13.1241     0.0000    20.0000 </r>
       <r>   -13.0518     0.0000    20.0000 </r>
       <r>   -12.9795     0.0000    20.0000 </r>
       <r>   -12.9072     0.0000    20.0000 </r>
       <r>   -12.8349     0.0000    20.0000 </r>
       <r>   -12.7626     0.0000    20.0000 </r>
       <r>   -12.6903     0.0000    20.0000 </r>
       <r>   -12.6180     0.0000    20.0000 </r>
       <r>   -12.5458     0.0000    20.0000 </r>
       <r>   -12.4735     0.0000    20.0000 </r>
       <r>   -12.4012     0.0000    20.0000 </r>
       <r>   -12.3289     0.0000    20.0000 </r>
       <r>   -12.2566     0.0000    20.0000 </r>
       <r>   -12.1843     0.0000    20.0000 </r>
       <r>   -12.1120     0.0000    20.0000 </r>
       <r>   -12.0397     0.0000    20.0000 </r>
       <r>   -11.9674     0.0000    20.0000 </r>
       <r>   -11.8951     0.0000    20.0000 </r>
       <r>   -11.8228     0.0000    20.0000 </r>
       <r>   -11.7505     0.0000    20.0000 </r>
       <r>   -11.6782     0.0000    20.0000 </r>
       <r>   -11.6059     0.0000    20.0000 </r>
       <r>   -11.5336     0.0000    20.0000 </r>
       <r>   -11.4613     0.0000    20.0000 </r>
       <r>   -11.3890     0.0000    20.0000 </r>
       <r>   -11.3167     0.0000    20.0000 </r>
       <r>   -11.2444     0.0000    20.0000 </r>
       <r>   -11.1721     0.0000    20.0000 </r>
       <r>   -11.0998     0.0000    20.0000 </r>
       <r>   -11.0275     0.0000    20.0000 </r>
       <r>   -10.9552     0.0000    20.0000 </r>
       <r>   -10.8830     0.0000    20.0000 </r>
       <r>   -10.8107     0.0000    20.0000 </r>
       <r>   -10.7384     0.0000    20.0000 </r>
       <r>   -10.6661     0.0000    20.0000 </r>
       <r>   -10.5938     0.0000    20.0000 </r>
       <r>   -10.5215     0.0000    20.0000 </r>
       <r>   -10.4492     0.0000    20.0000 </r>
       <r>   -10.3769     0.0000    20.0000 </r>
       <r>   -10.3046     0.0000    20.0000 </r>
       <r>   -10.2323     0.0000    20.0000 </r>
       <r>   -10.1600     0.0000    20.0000 </r>
       <r>   -10.0877     0.0004    20.0000 </r>
       <r>   -10.0154     0.0041    20.0003 </r>
       <r>    -9.9431     0.0333    20.0027 </r>
       <r>    -9.8708     0.2112    20.0179 </r>
       <r>    -9.7985     1.0580    20.0939 </r>
       <r>    -9.7262     4.1942    20.3953 </r>
       <r>    -9.6539    13.2008    21.3441 </r>
       <r>    -9.5816    33.1156    23.7247 </r>
       <r>    -9.5093    66.5222    28.5080 </r>
       <r>    -9.4370   107.5763    36.2445 </r>
       <r>    -9.3647   140.8497    46.3748 </r>
       <r>    -9.2924   150.1059    57.1710 </r>
       <r>    -9.2202   130.7159    66.5720 </r>
       <r>    -9.1479    93.1421    73.2698 </r>
       <r>    -9.0756    54.2159    77.1676 </r>
       <r>    -9.0033    25.6660    79.0123 </r>
       <r>    -8.9310     9.8215    79.7180 </r>
       <r>    -8.8587     3.0177    79.9347 </r>
       <r>    -8.7864     0.7399    79.9879 </r>
       <r>    -8.7141     0.1440    79.9982 </r>
       <r>    -8.6418     0.0221    79.9998 </r>
       <r>    -8.5695     0.0027    80.0000 </r>
       <r>    -8.4972     0.0003    80.0000 </r>
       <r>    -8.4249     0.0000    80.0000 </r>
       <r>    -8.3526     0.0000    80.0000 </r>
       <r>    -8.2803     0.0000    80.0000 </r>
       <r>    -8.2080     0.0000    80.0000 </r>
       <r>    -8.1357     0.0000    80.0000 </r>
       <r>    -8.0634     0.0000    80.0000 </r>
       <r>    -7.9911     0.0000    80.0000 </r>
       <r>    -7.9188     0.0000    80.0000 </r>
       <r>    -7.8465     0.0000    80.0000 </r>
       <r>    -7.7742     0.0000    80.0000 </r>
       <r>    -7.7019     0.0000    80.0000 </r>
       <r>    -7.6297     0.0000    80.0000 </r>
       <r>    -7.5574     0.0000    80.0000 </r>
       <r>    -7.4851     0.0000    80.0000 </r>
       <r>    -7.4128     0.0000    80.0000 </r>
       <r>    -7.3405     0.0000    80.0000 </r>
       <r>    -7.2682     0.0000    80.0000 </r>
       <r>    -7.1959     0.0000    80.0000 </r>
       <r>    -7.1236     0.0000    80.0000 </r>
       <r>    -7.0513     0.0000    80.0000 </r>
       <r>    -6.9790     0.0000    80.0000 </r>
       <r>    -6.9067     0.0000    80.0000 </r>
       <r>    -6.8344     0.0000    80.0000 </r>
       <r>    -6.7621     0.0000    80.0000 </r>
       <r>    -6.6898     0.0000    80.0000 </r>
       <r>    -6.6175     0.0000    80.0000 </r>
       <r>    -6.5452     0.0000    80.0000 </r>
       <r>    -6.4729     0.0000    80.0000 </r>
       <r>    -6.4006     0.0000    80.0000 </r>
       <r>    -6.3283     0.0000    80.0000 </r>
       <r>    -6.2560     0.0000    80.0000 </r>
       <r>    -6.1837     0.0000    80.0000 </r>
       <r>    -6.1114     0.0000    80.0000 </r>
       <r>    -6.0391     0.0000    80.0000 </r>
       <r>    -5.9669     0.0000    80.0000 </r>
       <r>    -5.8946     0.0000    80.0000 </r>
       <r>    -5.8223     0.0000    80.0000 </r>
       <r>    -5.7500     0.0000    80.0000 </r>
       <r>    -5.6777     0.0000    80.0000 </r>
       <r>    -5.6054     0.0000    80.0000 </r>
       <r>    -5.5331     0.0000    80.0000 </r>
       <r>    -5.4608     0.0000    80.0000 </r>
       <r>    -5.3885     0.0000    80.0000 </r>
       <r>    -5.3162     0.0000    80.0000 </r>
       <r>    -5.2439     0.0000    80.0000 </r>
       <r>    -5.1716     0.0000    80.0000 </r>
       <r>    -5.0993     0.0000    80.0000 </r>
       <r>    -5.0270     0.0000    80.0000 </r>
       <r>    -4.9547     0.0000    80.0000 </r>
       <r>    -4.8824     0.0000    80.0000 </r>
       <r>    -4.8101     0.0000    80.0000 </r>
       <r>    -4.7378     0.0000    80.0000 </r>
       <r>    -4.6655     0.0000    80.0000 </r>
       <r>    -4.5932     0.0000    80.0000 </r>
       <r>    -4.5209     0.0000    80.0000 </r>
       <r>    -4.4486     0.0000    80.0000 </r>
       <r>    -4.3763     0.0000    80.0000 </r>
       <r>    -4.3041     0.0000    80.0000 </r>
       <r>    -4.2318     0.0000    80.0000 </r>
       <r>    -4.1595     0.0000    80.0000 </r>
       <r>    -4.0872     0.0000    80.0000 </r>
       <r>    -4.0149     0.0000    80.0000 </r>
       <r>    -3.9426     0.0000    80.0000 </r>
       <r>    -3.8703     0.0000    80.0000 </r>
       <r>    -3.7980     0.0000    80.0000 </r>
       <r>    -3.7257     0.0000    80.0000 </r>
       <r>    -3.6534     0.0000    80.0000 </r>
       <r>    -3.5811     0.0000    80.0000 </r>
       <r>    -3.5088     0.0000    80.0000 </r>
       <r>    -3.4365     0.0000    80.0000 </r>
       <r>    -3.3642     0.0000    80.0000 </r>
       <r>    -3.2919     0.0000    80.0000 </r>
       <r>    -3.2196     0.0000    80.0000 </r>
       <r>    -3.1473     0.0000    80.0000 </r>
       <r>    -3.0750     0.0000    80.0000 </r>
       <r>    -3.0027     0.0000    80.0000 </r>
       <r>    -2.9304     0.0000    80.0000 </r>
       <r>    -2.8581     0.0000    80.0000 </r>
       <r>    -2.7858     0.0000    80.0000 </r>
       <r>    -2.7135     0.0000    80.0000 </r>
       <r>    -2.6413     0.0000    80.0000 </r>
       <r>    -2.5690     0.0000    80.0000 </r>
       <r>    -2.4967     0.0000    80.0000 </r>
       <r>    -2.4244     0.0000    80.0000 </r>
       <r>    -2.3521     0.0000    80.0000 </r>
       <r>    -2.2798     0.0000    80.0000 </r>
       <r>    -2.2075     0.0000    80.0000 </r>
       <r>    -2.1352     0.0000    80.0000 </r>
       <r>    -2.0629     0.0000    80.0000 </r>
       <r>    -1.9906     0.0000    80.0000 </r>
       <r>    -1.9183     0.0000    80.0000 </r>
       <r>    -1.8460     0.0000    80.0000 </r>
[...]
       <r>     0.2506     4.8714   100.4612 </r>
       <r>     0.3229    14.4966   101.5030 </r>
       <r>     0.3952    35.0511   104.0224 </r>
       <r>     0.4675    68.7462   108.9645 </r>
       <r>     0.5398   109.8924   116.8657 </r>
       <r>     0.6121   143.4048   127.1777 </r>
       <r>     0.6843   152.4023   138.1379 </r>
       <r>     0.7566   131.1525   147.5707 </r>
       <r>     0.8289    90.7214   154.0961 </r>
       <r>     0.9012    50.0649   157.6974 </r>
       <r>     0.9735    21.8972   159.2726 </r>
       <r>     1.0458     7.5506   159.8158 </r>
       <r>     1.1181     2.0444   159.9629 </r>
       <r>     1.1904     0.4334   159.9941 </r>
       <r>     1.2627     0.0718   159.9993 </r>
       <r>     1.3350     0.0093   159.9999 </r>
       <r>     1.4073     0.0009   160.0000 </r>
       <r>     1.4796     0.0001   160.0000 </r>
       <r>     1.5519     0.0000   160.0000 </r>
       <r>     1.6242     0.0000   160.0000 </r>
       <r>     1.6965     0.0000   160.0000 </r>
       <r>     1.7688     0.0000   160.0000 </r>
       <r>     1.8411     0.0000   160.0000 </r>
       <r>     1.9134     0.0000   160.0000 </r>
       <r>     1.9857     0.0000   160.0000 </r>
       <r>     2.0580     0.0000   160.0000 </r>
       <r>     2.1303     0.0000   160.0000 </r>
       <r>     2.2026     0.0000   160.0000 </r>
       <r>     2.2749     0.0000   160.0000 </r>
       <r>     2.3471     0.0000   160.0000 </r>
       <r>     2.4194     0.0000   160.0000 </r>
       <r>     2.4917     0.0000   160.0000 </r>
       <r>     2.5640     0.0000   160.0000 </r>
       <r>     2.6363     0.0000   160.0000 </r>
       <r>     2.7086     0.0000   160.0000 </r>
      </set>
     </set>
    </array>
   </total>
  </dos>
  <time name="totalsc">    2.14    2.14</time>
  <eigenvalues>
   <array>
    <dimension dim="1">band</dimension>
    <dimension dim="2">kpoint</dimension>
    <dimension dim="3">spin</dimension>
    <field>eigene</field>
    <field>occ</field>
    <set>
     <set comment="spin 1">
      <set comment="kpoint 1">
       <r>  -16.9903    1.0000 </r>
       <r>   -9.3871    1.0000 </r>
       <r>   -9.3492    1.0000 </r>
       <r>   -9.2927    1.0000 </r>
       <r>   -0.3030    0.0000 </r>
       <r>    0.5397    0.0000 </r>
       <r>    0.6643    0.0000 </r>
       <r>    0.6753    0.0000 </r>
      </set>
      <set comment="kpoint 2">
       <r>  -16.9903    1.0000 </r>
       <r>   -9.3872    1.0000 </r>
       <r>   -9.3491    1.0000 </r>
       <r>   -9.2927    1.0000 </r>
       <r>   -0.3043    0.0000 </r>
       <r>    0.5426    0.0000 </r>
       <r>    0.6588    0.0000 </r>
       <r>    0.6823    0.0000 </r>
      </set>
      <set comment="kpoint 3">
       <r>  -16.9903    1.0000 </r>
       <r>   -9.3871    1.0000 </r>
       <r>   -9.3492    1.0000 </r>
       <r>   -9.2927    1.0000 </r>
       <r>   -0.3063    0.0000 </r>
       <r>    0.5471    0.0000 </r>
       <r>    0.6632    0.0000 </r>
       <r>    0.6868    0.0000 </r>
      </set>
      <set comment="kpoint 4">
       <r>  -16.9904    1.0000 </r>
       <r>   -9.3871    1.0000 </r>
       <r>   -9.3493    1.0000 </r>
       <r>   -9.2929    1.0000 </r>
       <r>   -0.2986    0.0000 </r>
       <r>    0.5279    0.0000 </r>
       <r>    0.6563    0.0000 </r>
       <r>    0.6652    0.0000 </r>
      </set>
     </set>
    </set>
   </array>
  </eigenvalues>
  <separator name="orbital magnetization" >
   <v name="MAGDIPOLOUT">      0.00000000      0.00000000      0.00000000</v>
  </separator>
  <dos>
   <i name="efermi">     -8.36840693 </i>
   <total>
    <array>
     <dimension dim="1">gridpoints</dimension>
     <dimension dim="2">spin</dimension>
     <field>energy</field>
     <field>total</field>
     <field>integrated</field>
     <set>
      <set comment="spin 1">
       <r>   -18.9904     0.0000     0.0000 </r>
       <r>   -18.9181     0.0000     0.0000 </r>
       <r>   -18.8458     0.0000     0.0000 </r>
       <r>   -18.7736     0.0000     0.0000 </r>
       <r>   -18.7013     0.0000     0.0000 </r>
       <r>   -18.6291     0.0000     0.0000 </r>
       <r>   -18.5568     0.0000     0.0000 </r>
       <r>   -18.4846     0.0000     0.0000 </r>
       <r>   -18.4123     0.0000     0.0000 </r>
       <r>   -18.3400     0.0000     0.0000 </r>
       <r>   -18.2678     0.0000     0.0000 </r>
       <r>   -18.1955     0.0000     0.0000 </r>
       <r>   -18.1233     0.0000     0.0000 </r>
       <r>   -18.0510     0.0000     0.0000 </r>
       <r>   -17.9788     0.0000     0.0000 </r>
       <r>   -17.9065     0.0000     0.0000 </r>
       <r>   -17.8342     0.0000     0.0000 </r>
       <r>   -17.7620     0.0000     0.0000 </r>
       <r>   -17.6897     0.0000     0.0000 </r>
       <r>   -17.6175     0.0001     0.0000 </r>
       <r>   -17.5452     0.0011     0.0001 </r>
       <r>   -17.4730     0.0077     0.0006 </r>
       <r>   -17.4007     0.0425     0.0037 </r>
       <r>   -17.3284     0.1813     0.0168 </r>
       <r>   -17.2562     0.5995     0.0601 </r>
       <r>   -17.1839     1.5348     0.1710 </r>
       <r>   -17.1117     3.0431     0.3909 </r>
       <r>   -17.0394     4.6731     0.7286 </r>
       <r>   -16.9672     5.5583     1.1302 </r>
       <r>   -16.8949     5.1209     1.5002 </r>
       <r>   -16.8226     3.6545     1.7643 </r>
       <r>   -16.7504     2.0199     1.9103 </r>
       <r>   -16.6781     0.8647     1.9727 </r>
       <r>   -16.6059     0.2866     1.9934 </r>
       <r>   -16.5336     0.0736     1.9988 </r>
       <r>   -16.4614     0.0146     1.9998 </r>
       <r>   -16.3891     0.0022     2.0000 </r>
       <r>   -16.3168     0.0003     2.0000 </r>
       <r>   -16.2446     0.0000     2.0000 </r>
       <r>   -16.1723     0.0000     2.0000 </r>
       <r>   -16.1001     0.0000     2.0000 </r>
       <r>   -16.0278     0.0000     2.0000 </r>
       <r>   -15.9556     0.0000     2.0000 </r>
       <r>   -15.8833     0.0000     2.0000 </r>
       <r>   -15.8110     0.0000     2.0000 </r>
       <r>   -15.7388     0.0000     2.0000 </r>
       <r>   -15.6665     0.0000     2.0000 </r>
       <r>   -15.5943     0.0000     2.0000 </r>
       <r>   -15.5220     0.0000     2.0000 </r>
       <r>   -15.4498     0.0000     2.0000 </r>
       <r>   -15.3775     0.0000     2.0000 </r>
       <r>   -15.3052     0.0000     2.0000 </r>
       <r>   -15.2330     0.0000     2.0000 </r>
       <r>   -15.1607     0.0000     2.0000 </r>
       <r>   -15.0885     0.0000     2.0000 </r>
       <r>   -15.0162     0.0000     2.0000 </r>
       <r>   -14.9440     0.0000     2.0000 </r>
       <r>   -14.8717     0.0000     2.0000 </r>
       <r>   -14.7994     0.0000     2.0000 </r>
       <r>   -14.7272     0.0000     2.0000 </r>
       <r>   -14.6549     0.0000     2.0000 </r>
       <r>   -14.5827     0.0000     2.0000 </r>
       <r>   -14.5104     0.0000     2.0000 </r>
       <r>   -14.4382     0.0000     2.0000 </r>
       <r>   -14.3659     0.0000     2.0000 </r>
       <r>   -14.2936     0.0000     2.0000 </r>
       <r>   -14.2214     0.0000     2.0000 </r>
       <r>   -14.1491     0.0000     2.0000 </r>
       <r>   -14.0769     0.0000     2.0000 </r>
       <r>   -14.0046     0.0000     2.0000 </r>
       <r>   -13.9324     0.0000     2.0000 </r>
       <r>   -13.8601     0.0000     2.0000 </r>
       <r>   -13.7878     0.0000     2.0000 </r>
       <r>   -13.7156     0.0000     2.0000 </r>
       <r>   -13.6433     0.0000     2.0000 </r>
       <r>   -13.5711     0.0000     2.0000 </r>
       <r>   -13.4988     0.0000     2.0000 </r>
       <r>   -13.4266     0.0000     2.0000 </r>
       <r>   -13.3543     0.0000     2.0000 </r>
       <r>   -13.2820     0.0000     2.0000 </r>
       <r>   -13.2098     0.0000     2.0000 </r>
       <r>   -13.1375     0.0000     2.0000 </r>
       <r>   -13.0653     0.0000     2.0000 </r>
       <r>   -12.9930     0.0000     2.0000 </r>
       <r>   -12.9208     0.0000     2.0000 </r>
       <r>   -12.8485     0.0000     2.0000 </r>
       <r>   -12.7762     0.0000     2.0000 </r>
       <r>   -12.7040     0.0000     2.0000 </r>
       <r>   -12.6317     0.0000     2.0000 </r>
       <r>   -12.5595     0.0000     2.0000 </r>
       <r>   -12.4872     0.0000     2.0000 </r>
       <r>   -12.4150     0.0000     2.0000 </r>
       <r>   -12.3427     0.0000     2.0000 </r>
       <r>   -12.2704     0.0000     2.0000 </r>
       <r>   -12.1982     0.0000     2.0000 </r>
       <r>   -12.1259     0.0000     2.0000 </r>
       <r>   -12.0537     0.0000     2.0000 </r>
       <r>   -11.9814     0.0000     2.0000 </r>
       <r>   -11.9092     0.0000     2.0000 </r>
       <r>   -11.8369     0.0000     2.0000 </r>
       <r>   -11.7646     0.0000     2.0000 </r>
       <r>   -11.6924     0.0000     2.0000 </r>
       <r>   -11.6201     0.0000     2.0000 </r>
       <r>   -11.5479     0.0000     2.0000 </r>
       <r>   -11.4756     0.0000     2.0000 </r>
       <r>   -11.4034     0.0000     2.0000 </r>
       <r>   -11.3311     0.0000     2.0000 </r>
       <r>   -11.2588     0.0000     2.0000 </r>
       <r>   -11.1866     0.0000     2.0000 </r>
       <r>   -11.1143     0.0000     2.0000 </r>
       <r>   -11.0421     0.0000     2.0000 </r>
       <r>   -10.9698     0.0000     2.0000 </r>
       <r>   -10.8976     0.0000     2.0000 </r>
       <r>   -10.8253     0.0000     2.0000 </r>
       <r>   -10.7530     0.0000     2.0000 </r>
       <r>   -10.6808     0.0000     2.0000 </r>
       <r>   -10.6085     0.0000     2.0000 </r>
       <r>   -10.5363     0.0000     2.0000 </r>
       <r>   -10.4640     0.0000     2.0000 </r>
       <r>   -10.3918     0.0000     2.0000 </r>
       <r>   -10.3195     0.0000     2.0000 </r>
       <r>   -10.2472     0.0000     2.0000 </r>
       <r>   -10.1750     0.0000     2.0000 </r>
       <r>   -10.1027     0.0000     2.0000 </r>
       <r>   -10.0305     0.0001     2.0000 </r>
       <r>    -9.9582     0.0009     2.0001 </r>
       <r>    -9.8859     0.0072     2.0006 </r>
       <r>    -9.8137     0.0445     2.0038 </r>
       <r>    -9.7414     0.2142     2.0193 </r>
       <r>    -9.6692     0.8063     2.0776 </r>
       <r>    -9.5969     2.3770     2.2493 </r>
       <r>    -9.5247     5.4983     2.6466 </r>
       <r>    -9.4524     9.9968     3.3689 </r>
       <r>    -9.3801    14.3089     4.4029 </r>
       <r>    -9.3079    16.1444     5.5694 </r>
       <r>    -9.2356    14.3709     6.6078 </r>
       <r>    -9.1634    10.0962     7.3373 </r>
       <r>    -9.0911     5.5969     7.7418 </r>
       <r>    -9.0189     2.4464     7.9185 </r>
       <r>    -8.9466     0.8421     7.9794 </r>
       <r>    -8.8743     0.2279     7.9958 </r>
       <r>    -8.8021     0.0484     7.9993 </r>
       <r>    -8.7298     0.0081     7.9999 </r>
       <r>    -8.6576     0.0010     8.0000 </r>
       <r>    -8.5853     0.0001     8.0000 </r>
       <r>    -8.5131     0.0000     8.0000 </r>
       <r>    -8.4408     0.0000     8.0000 </r>
       <r>    -8.3685     0.0000     8.0000 </r>
       <r>    -8.2963     0.0000     8.0000 </r>
       <r>    -8.2240     0.0000     8.0000 </r>
       <r>    -8.1518     0.0000     8.0000 </r>
       <r>    -8.0795     0.0000     8.0000 </r>
       <r>    -8.0073     0.0000     8.0000 </r>
       <r>    -7.9350     0.0000     8.0000 </r>
       <r>    -7.8627     0.0000     8.0000 </r>
       <r>    -7.7905     0.0000     8.0000 </r>
       <r>    -7.7182     0.0000     8.0000 </r>
       <r>    -7.6460     0.0000     8.0000 </r>
       <r>    -7.5737     0.0000     8.0000 </r>
       <r>    -7.5015     0.0000     8.0000 </r>
       <r>    -7.4292     0.0000     8.0000 </r>
       <r>    -7.3569     0.0000     8.0000 </r>
       <r>    -7.2847     0.0000     8.0000 </r>
       <r>    -7.2124     0.0000     8.0000 </r>
       <r>    -7.1402     0.0000     8.0000 </r>
       <r>    -7.0679     0.0000     8.0000 </r>
       <r>    -6.9957     0.0000     8.0000 </r>
       <r>    -6.9234     0.0000     8.0000 </r>
       <r>    -6.8511     0.0000     8.0000 </r>
       <r>    -6.7789     0.0000     8.0000 </r>
       <r>    -6.7066     0.0000     8.0000 </r>
       <r>    -6.6344     0.0000     8.0000 </r>
       <r>    -6.5621     0.0000     8.0000 </r>
       <r>    -6.4899     0.0000     8.0000 </r>
       <r>    -6.4176     0.0000     8.0000 </r>
       <r>    -6.3453     0.0000     8.0000 </r>
       <r>    -6.2731     0.0000     8.0000 </r>
       <r>    -6.2008     0.0000     8.0000 </r>
       <r>    -6.1286     0.0000     8.0000 </r>
       <r>    -6.0563     0.0000     8.0000 </r>
       <r>    -5.9841     0.0000     8.0000 </r>
       <r>    -5.9118     0.0000     8.0000 </r>
       <r>    -5.8395     0.0000     8.0000 </r>
       <r>    -5.7673     0.0000     8.0000 </r>
       <r>    -5.6950     0.0000     8.0000 </r>
       <r>    -5.6228     0.0000     8.0000 </r>
       <r>    -5.5505     0.0000     8.0000 </r>
       <r>    -5.4783     0.0000     8.0000 </r>
       <r>    -5.4060     0.0000     8.0000 </r>
       <r>    -5.3337     0.0000     8.0000 </r>
       <r>    -5.2615     0.0000     8.0000 </r>
       <r>    -5.1892     0.0000     8.0000 </r>
       <r>    -5.1170     0.0000     8.0000 </r>
       <r>    -5.0447     0.0000     8.0000 </r>
       <r>    -4.9725     0.0000     8.0000 </r>
       <r>    -4.9002     0.0000     8.0000 </r>
       <r>    -4.8279     0.0000     8.0000 </r>
       <r>    -4.7557     0.0000     8.0000 </r>
       <r>    -4.6834     0.0000     8.0000 </r>
       <r>    -4.6112     0.0000     8.0000 </r>
       <r>    -4.5389     0.0000     8.0000 </r>
       <r>    -4.4667     0.0000     8.0000 </r>
       <r>    -4.3944     0.0000     8.0000 </r>
       <r>    -4.3221     0.0000     8.0000 </r>
       <r>    -4.2499     0.0000     8.0000 </r>
       <r>    -4.1776     0.0000     8.0000 </r>
       <r>    -4.1054     0.0000     8.0000 </r>
       <r>    -4.0331     0.0000     8.0000 </r>
       <r>    -3.9609     0.0000     8.0000 </r>
       <r>    -3.8886     0.0000     8.0000 </r>
       <r>    -3.8163     0.0000     8.0000 </r>
       <r>    -3.7441     0.0000     8.0000 </r>
       <r>    -3.6718     0.0000     8.0000 </r>
       <r>    -3.5996     0.0000     8.0000 </r>
       <r>    -3.5273     0.0000     8.0000 </r>
       <r>    -3.4551     0.0000     8.0000 </r>
       <r>    -3.3828     0.0000     8.0000 </r>
       <r>    -3.3105     0.0000     8.0000 </r>
       <r>    -3.2383     0.0000     8.0000 </r>
       <r>    -3.1660     0.0000     8.0000 </r>
       <r>    -3.0938     0.0000     8.0000 </r>
       <r>    -3.0215     0.0000     8.0000 </r>
       <r>    -2.9493     0.0000     8.0000 </r>
       <r>    -2.8770     0.0000     8.0000 </r>
       <r>    -2.8047     0.0000     8.0000 </r>
       <r>    -2.7325     0.0000     8.0000 </r>
       <r>    -2.6602     0.0000     8.0000 </r>
       <r>    -2.5880     0.0000     8.0000 </r>
       <r>    -2.5157     0.0000     8.0000 </r>
       <r>    -2.4435     0.0000     8.0000 </r>
       <r>    -2.3712     0.0000     8.0000 </r>
       <r>    -2.2989     0.0000     8.0000 </r>
       <r>    -2.2267     0.0000     8.0000 </r>
       <r>    -2.1544     0.0000     8.0000 </r>
       <r>    -2.0822     0.0000     8.0000 </r>
       <r>    -2.0099     0.0000     8.0000 </r>
       <r>    -1.9377     0.0000     8.0000 </r>
       <r>    -1.8654     0.0000     8.0000 </r>
       <r>    -1.7931     0.0000     8.0000 </r>
       <r>    -1.7209     0.0000     8.0000 </r>
       <r>    -1.6486     0.0000     8.0000 </r>
       <r>    -1.5764     0.0000     8.0000 </r>
       <r>    -1.5041     0.0000     8.0000 </r>
       <r>    -1.4319     0.0000     8.0000 </r>
       <r>    -1.3596     0.0000     8.0000 </r>
       <r>    -1.2873     0.0000     8.0000 </r>
       <r>    -1.2151     0.0000     8.0000 </r>
       <r>    -1.1428     0.0000     8.0000 </r>
       <r>    -1.0706     0.0000     8.0000 </r>
       <r>    -0.9983     0.0000     8.0000 </r>
       <r>    -0.9261     0.0001     8.0000 </r>
       <r>    -0.8538     0.0012     8.0001 </r>
       <r>    -0.7815     0.0086     8.0007 </r>
       <r>    -0.7093     0.0465     8.0041 </r>
       <r>    -0.6370     0.1957     8.0182 </r>
       <r>    -0.5648     0.6374     8.0643 </r>
       <r>    -0.4925     1.6075     8.1804 </r>
       <r>    -0.4203     3.1402     8.4073 </r>
       <r>    -0.3480     4.7515     8.7507 </r>
       <r>    -0.2757     5.5694     9.1531 </r>
       <r>    -0.2035     5.0571     9.5185 </r>
       <r>    -0.1312     3.5571     9.7755 </r>
       <r>    -0.0590     1.9384     9.9156 </r>
       <r>     0.0133     0.8205     9.9749 </r>
       <r>     0.0855     0.2842     9.9954 </r>
       <r>     0.1578     0.1541    10.0066 </r>
       <r>     0.2301     0.3622    10.0327 </r>
       <r>     0.3023     1.1190    10.1136 </r>
       <r>     0.3746     2.8614    10.3203 </r>
       <r>     0.4468     5.9172    10.7479 </r>
       <r>     0.5191     9.9528    11.4671 </r>
       <r>     0.5913    13.6632    12.4543 </r>
       <r>     0.6636    15.2862    13.5589 </r>
       <r>     0.7359    13.8551    14.5600 </r>
       <r>     0.8081    10.0887    15.2890 </r>
       <r>     0.8804     5.8504    15.7117 </r>
       <r>     0.9526     2.6813    15.9054 </r>
       <r>     1.0249     0.9653    15.9752 </r>
       <r>     1.0971     0.2718    15.9948 </r>
       <r>     1.1694     0.0597    15.9992 </r>
       <r>     1.2417     0.0102    15.9999 </r>
       <r>     1.3139     0.0014    16.0000 </r>
       <r>     1.3862     0.0001    16.0000 </r>
       <r>     1.4584     0.0000    16.0000 </r>
       <r>     1.5307     0.0000    16.0000 </r>
       <r>     1.6029     0.0000    16.0000 </r>
       <r>     1.6752     0.0000    16.0000 </r>
       <r>     1.7475     0.0000    16.0000 </r>
       <r>     1.8197     0.0000    16.0000 </r>
       <r>     1.8920     0.0000    16.0000 </r>
       <r>     1.9642     0.0000    16.0000 </r>
       <r>     2.0365     0.0000    16.0000 </r>
       <r>     2.1087     0.0000    16.0000 </r>
       <r>     2.1810     0.0000    16.0000 </r>
       <r>     2.2533     0.0000    16.0000 </r>
       <r>     2.3255     0.0000    16.0000 </r>
       <r>     2.3978     0.0000    16.0000 </r>
       <r>     2.4700     0.0000    16.0000 </r>
       <r>     2.5423     0.0000    16.0000 </r>
       <r>     2.6145     0.0000    16.0000 </r>
       <r>     2.6868     0.0000    16.0000 </r>
      </set>
     </set>
    </array>
   </total>
  </dos>
 </calculation>
 <structure name="finalpos" >
  <crystal>
   <varray name="basis" >
    <v>       9.99205649       0.00000000       0.00000000 </v>
    <v>      -0.21593460      10.20141380       0.00000000 </v>
    <v>       0.15920475       0.07007613      10.15795148 </v>
   </varray>
   <i name="volume">   1035.43151451 </i>
   <varray name="rec_basis" >
    <v>       0.10007950       0.00211840      -0.00158315 </v>
    <v>       0.00000000       0.09802563      -0.00067624 </v>
    <v>       0.00000000       0.00000000       0.09844505 </v>
   </varray>
  </crystal>
  <varray name="positions" >
   <v>       0.53729628       0.40975745       0.36302283 </v>
   <v>       0.39517779       0.47890459       0.43977566 </v>
   <v>       0.55264478       0.56333208       0.44213891 </v>
   <v>       0.52686776       0.41815761       0.53561392 </v>
   <v>       0.50335140       0.46706906       0.44528020 </v>
  </varray>
  <varray name="velocities" >
   <v>       0.00000940       0.00023293       0.00005201 </v>
   <v>       0.00003702      -0.00019782       0.00011954 </v>
   <v>       0.00015506      -0.00017523      -0.00009016 </v>
   <v>      -0.00018343       0.00013627      -0.00010335 </v>
   <v>      -0.00000150       0.00000032       0.00000183 </v>
  </varray>
 </structure>
</modeling>
