   5   5   0   0
  0.2028769E+03  0.9987601E-09  0.1008377E-08  0.1007757E-08  0.5000000E-15
  1.000000000000000E-004
  CAR 
 unknown system                          
      2.70261387    -18.93993049  301     -8.33494285      1.00000000
    -18.940  0.0000E+00  0.0000E+00
    -18.868  0.0000E+00  0.0000E+00
    -18.796  0.0000E+00  0.0000E+00
    -18.724  0.0000E+00  0.0000E+00
    -18.651  0.0000E+00  0.0000E+00
    -18.579  0.0000E+00  0.0000E+00
    -18.507  0.0000E+00  0.0000E+00
    -18.435  0.0000E+00  0.0000E+00
    -18.363  0.0000E+00  0.0000E+00
    -18.291  0.0000E+00  0.0000E+00
    -18.219  0.0000E+00  0.0000E+00
    -18.146  0.0000E+00  0.0000E+00
    -18.074  0.1235E-13  0.8882E-15
    -18.002  0.6887E-12  0.5043E-13
    -17.930  0.2965E-10  0.2184E-11
    -17.858  0.9892E-09  0.7334E-10
    -17.786  0.2556E-07  0.1912E-08
    -17.714  0.5118E-06  0.3873E-07
    -17.641  0.7942E-05  0.6100E-06
    -17.569  0.9553E-04  0.7481E-05
    -17.497  0.8910E-03  0.7157E-04
    -17.425  0.6445E-02  0.5351E-03
    -17.353  0.3616E-01  0.3136E-02
    -17.281  0.1574E+00  0.1446E-01
    -17.209  0.5319E+00  0.5272E-01
    -17.136  0.1395E+01  0.1531E+00
    -17.064  0.2840E+01  0.3573E+00
    -16.992  0.4490E+01  0.6802E+00
    -16.920  0.5512E+01  0.1077E+01
    -16.848  0.5254E+01  0.1454E+01
    -16.776  0.3890E+01  0.1734E+01
    -16.704  0.2236E+01  0.1895E+01
    -16.631  0.9984E+00  0.1967E+01
    -16.559  0.3462E+00  0.1992E+01
    -16.487  0.9319E-01  0.1998E+01
    -16.415  0.1948E-01  0.2000E+01
    -16.343  0.3161E-02  0.2000E+01
    -16.271  0.3981E-03  0.2000E+01
    -16.199  0.3892E-04  0.2000E+01
    -16.126  0.2952E-05  0.2000E+01
    -16.054  0.1737E-06  0.2000E+01
    -15.982  0.7930E-08  0.2000E+01
    -15.910  0.2808E-09  0.2000E+01
    -15.838  0.7710E-11  0.2000E+01
    -15.766  0.1645E-12  0.2000E+01
    -15.694  0.2784E-14  0.2000E+01
    -15.621  0.0000E+00  0.2000E+01
    -15.549  0.0000E+00  0.2000E+01
    -15.477  0.0000E+00  0.2000E+01
    -15.405  0.0000E+00  0.2000E+01
    -15.333  0.0000E+00  0.2000E+01
    -15.261  0.0000E+00  0.2000E+01
    -15.189  0.0000E+00  0.2000E+01
    -15.116  0.0000E+00  0.2000E+01
    -15.044  0.0000E+00  0.2000E+01
    -14.972  0.0000E+00  0.2000E+01
    -14.900  0.0000E+00  0.2000E+01
    -14.828  0.0000E+00  0.2000E+01
    -14.756  0.0000E+00  0.2000E+01
    -14.684  0.0000E+00  0.2000E+01
    -14.611  0.0000E+00  0.2000E+01
    -14.539  0.0000E+00  0.2000E+01
    -14.467  0.0000E+00  0.2000E+01
    -14.395  0.0000E+00  0.2000E+01
    -14.323  0.0000E+00  0.2000E+01
    -14.251  0.0000E+00  0.2000E+01
    -14.179  0.0000E+00  0.2000E+01
    -14.106  0.0000E+00  0.2000E+01
    -14.034  0.0000E+00  0.2000E+01
    -13.962  0.0000E+00  0.2000E+01
    -13.890  0.0000E+00  0.2000E+01
    -13.818  0.0000E+00  0.2000E+01
    -13.746  0.0000E+00  0.2000E+01
    -13.674  0.0000E+00  0.2000E+01
    -13.601  0.0000E+00  0.2000E+01
    -13.529  0.0000E+00  0.2000E+01
    -13.457  0.0000E+00  0.2000E+01
    -13.385  0.0000E+00  0.2000E+01
    -13.313  0.0000E+00  0.2000E+01
    -13.241  0.0000E+00  0.2000E+01
    -13.169  0.0000E+00  0.2000E+01
    -13.096  0.0000E+00  0.2000E+01
    -13.024  0.0000E+00  0.2000E+01
    -12.952  0.0000E+00  0.2000E+01
    -12.880  0.0000E+00  0.2000E+01
    -12.808  0.0000E+00  0.2000E+01
    -12.736  0.0000E+00  0.2000E+01
    -12.664  0.0000E+00  0.2000E+01
    -12.591  0.0000E+00  0.2000E+01
    -12.519  0.0000E+00  0.2000E+01
    -12.447  0.0000E+00  0.2000E+01
    -12.375  0.0000E+00  0.2000E+01
    -12.303  0.0000E+00  0.2000E+01
    -12.231  0.0000E+00  0.2000E+01
    -12.159  0.0000E+00  0.2000E+01
    -12.086  0.0000E+00  0.2000E+01
    -12.014  0.0000E+00  0.2000E+01
    -11.942  0.0000E+00  0.2000E+01
    -11.870  0.0000E+00  0.2000E+01
    -11.798  0.0000E+00  0.2000E+01
    -11.726  0.0000E+00  0.2000E+01
    -11.654  0.0000E+00  0.2000E+01
    -11.581  0.0000E+00  0.2000E+01
    -11.509  0.0000E+00  0.2000E+01
    -11.437  0.0000E+00  0.2000E+01
    -11.365  0.0000E+00  0.2000E+01
    -11.293  0.0000E+00  0.2000E+01
    -11.221  0.0000E+00  0.2000E+01
    -11.149  0.0000E+00  0.2000E+01
    -11.076  0.0000E+00  0.2000E+01
    -11.004  0.0000E+00  0.2000E+01
    -10.932  0.0000E+00  0.2000E+01
    -10.860  0.0000E+00  0.2000E+01
    -10.788  0.0000E+00  0.2000E+01
    -10.716  0.0000E+00  0.2000E+01
    -10.644  0.0000E+00  0.2000E+01
    -10.571  0.1853E-14  0.2000E+01
    -10.499  0.1050E-12  0.2000E+01
    -10.427  0.5081E-11  0.2000E+01
    -10.355  0.1902E-09  0.2000E+01
    -10.283  0.5529E-08  0.2000E+01
    -10.211  0.1249E-06  0.2000E+01
    -10.139  0.2195E-05  0.2000E+01
    -10.066  0.3003E-04  0.2000E+01
     -9.994  0.3204E-03  0.2000E+01
     -9.922  0.2671E-02  0.2000E+01
     -9.850  0.1744E-01  0.2001E+01
     -9.778  0.8961E-01  0.2008E+01
     -9.706  0.3637E+00  0.2034E+01
     -9.634  0.1173E+01  0.2118E+01
     -9.561  0.3024E+01  0.2336E+01
     -9.489  0.6269E+01  0.2787E+01
     -9.417  0.1049E+02  0.3541E+01
     -9.345  0.1421E+02  0.4563E+01
     -9.273  0.1554E+02  0.5680E+01
     -9.201  0.1368E+02  0.6664E+01
     -9.129  0.9640E+01  0.7357E+01
     -9.057  0.5407E+01  0.7746E+01
     -8.984  0.2400E+01  0.7919E+01
     -8.912  0.8394E+00  0.7979E+01
     -8.840  0.2304E+00  0.7996E+01
     -8.768  0.4951E-01  0.7999E+01
     -8.696  0.8307E-02  0.8000E+01
     -8.624  0.1087E-02  0.8000E+01
     -8.552  0.1108E-03  0.8000E+01
     -8.479  0.8789E-05  0.8000E+01
     -8.407  0.5421E-06  0.8000E+01
     -8.335  0.2598E-07  0.8000E+01
     -8.263  0.9675E-09  0.8000E+01
     -8.191  0.2797E-10  0.8000E+01
     -8.119  0.6286E-12  0.8000E+01
     -8.047  0.1050E-13  0.8000E+01
     -7.974  0.0000E+00  0.8000E+01
     -7.902  0.0000E+00  0.8000E+01
     -7.830  0.0000E+00  0.8000E+01
     -7.758  0.0000E+00  0.8000E+01
     -7.686  0.0000E+00  0.8000E+01
     -7.614  0.0000E+00  0.8000E+01
     -7.542  0.0000E+00  0.8000E+01
     -7.469  0.0000E+00  0.8000E+01
     -7.397  0.0000E+00  0.8000E+01
     -7.325  0.0000E+00  0.8000E+01
     -7.253  0.0000E+00  0.8000E+01
     -7.181  0.0000E+00  0.8000E+01
     -7.109  0.0000E+00  0.8000E+01
     -7.037  0.0000E+00  0.8000E+01
     -6.964  0.0000E+00  0.8000E+01
     -6.892  0.0000E+00  0.8000E+01
     -6.820  0.0000E+00  0.8000E+01
     -6.748  0.0000E+00  0.8000E+01
     -6.676  0.0000E+00  0.8000E+01
     -6.604  0.0000E+00  0.8000E+01
     -6.532  0.0000E+00  0.8000E+01
     -6.459  0.0000E+00  0.8000E+01
     -6.387  0.0000E+00  0.8000E+01
     -6.315  0.0000E+00  0.8000E+01
     -6.243  0.0000E+00  0.8000E+01
     -6.171  0.0000E+00  0.8000E+01
     -6.099  0.0000E+00  0.8000E+01
     -6.027  0.0000E+00  0.8000E+01
     -5.954  0.0000E+00  0.8000E+01
     -5.882  0.0000E+00  0.8000E+01
     -5.810  0.0000E+00  0.8000E+01
     -5.738  0.0000E+00  0.8000E+01
     -5.666  0.0000E+00  0.8000E+01
     -5.594  0.0000E+00  0.8000E+01
     -5.522  0.0000E+00  0.8000E+01
     -5.449  0.0000E+00  0.8000E+01
     -5.377  0.0000E+00  0.8000E+01
     -5.305  0.0000E+00  0.8000E+01
     -5.233  0.0000E+00  0.8000E+01
     -5.161  0.0000E+00  0.8000E+01
     -5.089  0.0000E+00  0.8000E+01
     -5.017  0.0000E+00  0.8000E+01
     -4.944  0.0000E+00  0.8000E+01
     -4.872  0.0000E+00  0.8000E+01
     -4.800  0.0000E+00  0.8000E+01
     -4.728  0.0000E+00  0.8000E+01
     -4.656  0.0000E+00  0.8000E+01
     -4.584  0.0000E+00  0.8000E+01
     -4.512  0.0000E+00  0.8000E+01
     -4.439  0.0000E+00  0.8000E+01
     -4.367  0.0000E+00  0.8000E+01
     -4.295  0.0000E+00  0.8000E+01
     -4.223  0.0000E+00  0.8000E+01
     -4.151  0.0000E+00  0.8000E+01
     -4.079  0.0000E+00  0.8000E+01
     -4.007  0.0000E+00  0.8000E+01
     -3.934  0.0000E+00  0.8000E+01
     -3.862  0.0000E+00  0.8000E+01
     -3.790  0.0000E+00  0.8000E+01
     -3.718  0.0000E+00  0.8000E+01
     -3.646  0.0000E+00  0.8000E+01
     -3.574  0.0000E+00  0.8000E+01
     -3.502  0.0000E+00  0.8000E+01
     -3.429  0.0000E+00  0.8000E+01
     -3.357  0.0000E+00  0.8000E+01
     -3.285  0.0000E+00  0.8000E+01
     -3.213  0.0000E+00  0.8000E+01
     -3.141  0.0000E+00  0.8000E+01
     -3.069  0.0000E+00  0.8000E+01
     -2.997  0.0000E+00  0.8000E+01
     -2.924  0.0000E+00  0.8000E+01
     -2.852  0.0000E+00  0.8000E+01
     -2.780  0.0000E+00  0.8000E+01
     -2.708  0.0000E+00  0.8000E+01
     -2.636  0.0000E+00  0.8000E+01
     -2.564  0.0000E+00  0.8000E+01
     -2.492  0.0000E+00  0.8000E+01
     -2.419  0.0000E+00  0.8000E+01
     -2.347  0.0000E+00  0.8000E+01
     -2.275  0.0000E+00  0.8000E+01
     -2.203  0.0000E+00  0.8000E+01
     -2.131  0.0000E+00  0.8000E+01
     -2.059  0.0000E+00  0.8000E+01
     -1.987  0.0000E+00  0.8000E+01
     -1.914  0.0000E+00  0.8000E+01
     -1.842  0.0000E+00  0.8000E+01
     -1.770  0.0000E+00  0.8000E+01
     -1.698  0.0000E+00  0.8000E+01
     -1.626  0.0000E+00  0.8000E+01
     -1.554  0.0000E+00  0.8000E+01
     -1.482  0.7149E-14  0.8000E+01
     -1.409  0.3919E-12  0.8000E+01
     -1.337  0.1717E-10  0.8000E+01
     -1.265  0.5842E-09  0.8000E+01
     -1.193  0.1544E-07  0.8000E+01
     -1.121  0.3171E-06  0.8000E+01
     -1.049  0.5060E-05  0.8000E+01
     -0.977  0.6278E-04  0.8000E+01
     -0.904  0.6056E-03  0.8000E+01
     -0.832  0.4543E-02  0.8000E+01
     -0.760  0.2651E-01  0.8002E+01
     -0.688  0.1203E+00  0.8011E+01
     -0.616  0.4247E+00  0.8041E+01
     -0.544  0.1167E+01  0.8125E+01
     -0.472  0.2494E+01  0.8305E+01
     -0.399  0.4148E+01  0.8603E+01
     -0.327  0.5369E+01  0.8989E+01
     -0.255  0.5406E+01  0.9378E+01
     -0.183  0.4234E+01  0.9682E+01
     -0.111  0.2580E+01  0.9868E+01
     -0.039  0.1223E+01  0.9956E+01
      0.033  0.4542E+00  0.9989E+01
      0.106  0.1526E+00  0.1000E+02
      0.178  0.1433E+00  0.1001E+02
      0.250  0.4455E+00  0.1004E+02
      0.322  0.1351E+01  0.1014E+02
      0.394  0.3324E+01  0.1038E+02
      0.466  0.6625E+01  0.1085E+02
      0.538  0.1075E+02  0.1163E+02
      0.611  0.1422E+02  0.1265E+02
      0.683  0.1531E+02  0.1375E+02
      0.755  0.1334E+02  0.1471E+02
      0.827  0.9340E+01  0.1538E+02
      0.899  0.5212E+01  0.1576E+02
      0.971  0.2303E+01  0.1592E+02
      1.043  0.8013E+00  0.1598E+02
      1.115  0.2187E+00  0.1600E+02
      1.188  0.4668E-01  0.1600E+02
      1.260  0.7777E-02  0.1600E+02
      1.332  0.1010E-02  0.1600E+02
      1.404  0.1020E-03  0.1600E+02
      1.476  0.8016E-05  0.1600E+02
      1.548  0.4896E-06  0.1600E+02
      1.620  0.2323E-07  0.1600E+02
      1.693  0.8558E-09  0.1600E+02
      1.765  0.2447E-10  0.1600E+02
      1.837  0.5431E-12  0.1600E+02
      1.909  0.8876E-14  0.1600E+02
      1.981  0.0000E+00  0.1600E+02
      2.053  0.0000E+00  0.1600E+02
      2.125  0.0000E+00  0.1600E+02
      2.198  0.0000E+00  0.1600E+02
      2.270  0.0000E+00  0.1600E+02
      2.342  0.0000E+00  0.1600E+02
      2.414  0.0000E+00  0.1600E+02
      2.486  0.0000E+00  0.1600E+02
      2.558  0.0000E+00  0.1600E+02
      2.630  0.0000E+00  0.1600E+02
      2.703  0.0000E+00  0.1600E+02
      2.70862856    -18.94603155  301     -8.33510712      1.00000000
    -18.946  0.0000E+00  0.0000E+00
    -18.874  0.0000E+00  0.0000E+00
    -18.802  0.0000E+00  0.0000E+00
    -18.729  0.0000E+00  0.0000E+00
    -18.657  0.0000E+00  0.0000E+00
    -18.585  0.0000E+00  0.0000E+00
    -18.513  0.0000E+00  0.0000E+00
    -18.441  0.0000E+00  0.0000E+00
    -18.369  0.0000E+00  0.0000E+00
    -18.296  0.0000E+00  0.0000E+00
    -18.224  0.0000E+00  0.0000E+00
    -18.152  0.0000E+00  0.0000E+00
    -18.080  0.1538E-14  0.1110E-15
    -18.008  0.8225E-13  0.6048E-14
    -17.935  0.3550E-11  0.2623E-12
    -17.863  0.1183E-09  0.8805E-11
    -17.791  0.3051E-08  0.2290E-09
    -17.719  0.6083E-07  0.4620E-08
    -17.647  0.9383E-06  0.7235E-07
    -17.575  0.1120E-04  0.8808E-06
    -17.502  0.1035E-03  0.8349E-05
    -17.430  0.7400E-03  0.6177E-04
    -17.358  0.4098E-02  0.3576E-03
    -17.286  0.1758E-01  0.1626E-02
    -17.214  0.5840E-01  0.5842E-02
    -17.141  0.1503E+00  0.1669E-01
    -17.069  0.2998E+00  0.3834E-01
    -16.997  0.4634E+00  0.7179E-01
    -16.925  0.5551E+00  0.1119E+00
    -16.853  0.5152E+00  0.1490E+00
    -16.781  0.3706E+00  0.1758E+00
    -16.708  0.2066E+00  0.1907E+00
    -16.636  0.8925E-01  0.1972E+00
    -16.564  0.2987E-01  0.1993E+00
    -16.492  0.7745E-02  0.1999E+00
    -16.420  0.1555E-02  0.2000E+00
    -16.347  0.2419E-03  0.2000E+00
    -16.275  0.2912E-04  0.2000E+00
    -16.203  0.2714E-05  0.2000E+00
    -16.131  0.1957E-06  0.2000E+00
    -16.059  0.1092E-07  0.2000E+00
    -15.987  0.4715E-09  0.2000E+00
    -15.914  0.1574E-10  0.2000E+00
    -15.842  0.4063E-12  0.2000E+00
    -15.770  0.8075E-14  0.2000E+00
    -15.698  0.0000E+00  0.2000E+00
    -15.626  0.0000E+00  0.2000E+00
    -15.553  0.0000E+00  0.2000E+00
    -15.481  0.0000E+00  0.2000E+00
    -15.409  0.0000E+00  0.2000E+00
    -15.337  0.0000E+00  0.2000E+00
    -15.265  0.0000E+00  0.2000E+00
    -15.193  0.0000E+00  0.2000E+00
    -15.120  0.0000E+00  0.2000E+00
    -15.048  0.0000E+00  0.2000E+00
    -14.976  0.0000E+00  0.2000E+00
    -14.904  0.0000E+00  0.2000E+00
    -14.832  0.0000E+00  0.2000E+00
    -14.759  0.0000E+00  0.2000E+00
    -14.687  0.0000E+00  0.2000E+00
    -14.615  0.0000E+00  0.2000E+00
    -14.543  0.0000E+00  0.2000E+00
    -14.471  0.0000E+00  0.2000E+00
    -14.399  0.0000E+00  0.2000E+00
    -14.326  0.0000E+00  0.2000E+00
    -14.254  0.0000E+00  0.2000E+00
    -14.182  0.0000E+00  0.2000E+00
    -14.110  0.0000E+00  0.2000E+00
    -14.038  0.0000E+00  0.2000E+00
    -13.965  0.0000E+00  0.2000E+00
    -13.893  0.0000E+00  0.2000E+00
    -13.821  0.0000E+00  0.2000E+00
    -13.749  0.0000E+00  0.2000E+00
    -13.677  0.0000E+00  0.2000E+00
    -13.605  0.0000E+00  0.2000E+00
    -13.532  0.0000E+00  0.2000E+00
    -13.460  0.0000E+00  0.2000E+00
    -13.388  0.0000E+00  0.2000E+00
    -13.316  0.0000E+00  0.2000E+00
    -13.244  0.0000E+00  0.2000E+00
    -13.171  0.0000E+00  0.2000E+00
    -13.099  0.0000E+00  0.2000E+00
    -13.027  0.0000E+00  0.2000E+00
    -12.955  0.0000E+00  0.2000E+00
    -12.883  0.0000E+00  0.2000E+00
    -12.811  0.0000E+00  0.2000E+00
    -12.738  0.0000E+00  0.2000E+00
    -12.666  0.0000E+00  0.2000E+00
    -12.594  0.0000E+00  0.2000E+00
    -12.522  0.0000E+00  0.2000E+00
    -12.450  0.0000E+00  0.2000E+00
    -12.377  0.0000E+00  0.2000E+00
    -12.305  0.0000E+00  0.2000E+00
    -12.233  0.0000E+00  0.2000E+00
    -12.161  0.0000E+00  0.2000E+00
    -12.089  0.0000E+00  0.2000E+00
    -12.017  0.0000E+00  0.2000E+00
    -11.944  0.0000E+00  0.2000E+00
    -11.872  0.0000E+00  0.2000E+00
    -11.800  0.0000E+00  0.2000E+00
    -11.728  0.0000E+00  0.2000E+00
    -11.656  0.0000E+00  0.2000E+00
    -11.583  0.0000E+00  0.2000E+00
    -11.511  0.0000E+00  0.2000E+00
    -11.439  0.0000E+00  0.2000E+00
    -11.367  0.0000E+00  0.2000E+00
    -11.295  0.0000E+00  0.2000E+00
    -11.223  0.0000E+00  0.2000E+00
    -11.150  0.0000E+00  0.2000E+00
    -11.078  0.0000E+00  0.2000E+00
    -11.006  0.0000E+00  0.2000E+00
    -10.934  0.0000E+00  0.2000E+00
    -10.862  0.0000E+00  0.2000E+00
    -10.789  0.0000E+00  0.2000E+00
    -10.717  0.0000E+00  0.2000E+00
    -10.645  0.0000E+00  0.2000E+00
    -10.573  0.0000E+00  0.2000E+00
    -10.501  0.4307E-14  0.2000E+00
    -10.429  0.2280E-12  0.2000E+00
    -10.356  0.9254E-11  0.2000E+00
    -10.284  0.2910E-09  0.2000E+00
    -10.212  0.7092E-08  0.2000E+00
    -10.140  0.1341E-06  0.2000E+00
    -10.068  0.1971E-05  0.2000E+00
     -9.995  0.2252E-04  0.2000E+00
     -9.923  0.2006E-03  0.2000E+00
     -9.851  0.1396E-02  0.2001E+00
     -9.779  0.7607E-02  0.2007E+00
     -9.707  0.3257E-01  0.2030E+00
     -9.635  0.1100E+00  0.2110E+00
     -9.562  0.2940E+00  0.2322E+00
     -9.490  0.6250E+00  0.2773E+00
     -9.418  0.1060E+01  0.3538E+00
     -9.346  0.1439E+01  0.4576E+00
     -9.274  0.1564E+01  0.5705E+00
     -9.201  0.1362E+01  0.6689E+00
     -9.129  0.9487E+00  0.7374E+00
     -9.057  0.5266E+00  0.7754E+00
     -8.985  0.2322E+00  0.7921E+00
     -8.913  0.8101E-01  0.7980E+00
     -8.841  0.2228E-01  0.7996E+00
     -8.768  0.4814E-02  0.7999E+00
     -8.696  0.8150E-03  0.8000E+00
     -8.624  0.1078E-03  0.8000E+00
     -8.552  0.1113E-04  0.8000E+00
     -8.480  0.8940E-06  0.8000E+00
     -8.407  0.5586E-07  0.8000E+00
     -8.335  0.2710E-08  0.8000E+00
     -8.263  0.1021E-09  0.8000E+00
     -8.191  0.2979E-11  0.8000E+00
     -8.119  0.6714E-13  0.8000E+00
     -8.047  0.1230E-14  0.8000E+00
     -7.974  0.0000E+00  0.8000E+00
     -7.902  0.0000E+00  0.8000E+00
     -7.830  0.0000E+00  0.8000E+00
     -7.758  0.0000E+00  0.8000E+00
     -7.686  0.0000E+00  0.8000E+00
     -7.613  0.0000E+00  0.8000E+00
     -7.541  0.0000E+00  0.8000E+00
     -7.469  0.0000E+00  0.8000E+00
     -7.397  0.0000E+00  0.8000E+00
     -7.325  0.0000E+00  0.8000E+00
     -7.253  0.0000E+00  0.8000E+00
     -7.180  0.0000E+00  0.8000E+00
     -7.108  0.0000E+00  0.8000E+00
     -7.036  0.0000E+00  0.8000E+00
     -6.964  0.0000E+00  0.8000E+00
     -6.892  0.0000E+00  0.8000E+00
     -6.819  0.0000E+00  0.8000E+00
     -6.747  0.0000E+00  0.8000E+00
     -6.675  0.0000E+00  0.8000E+00
     -6.603  0.0000E+00  0.8000E+00
     -6.531  0.0000E+00  0.8000E+00
     -6.459  0.0000E+00  0.8000E+00
     -6.386  0.0000E+00  0.8000E+00
     -6.314  0.0000E+00  0.8000E+00
     -6.242  0.0000E+00  0.8000E+00
     -6.170  0.0000E+00  0.8000E+00
     -6.098  0.0000E+00  0.8000E+00
     -6.025  0.0000E+00  0.8000E+00
     -5.953  0.0000E+00  0.8000E+00
     -5.881  0.0000E+00  0.8000E+00
     -5.809  0.0000E+00  0.8000E+00
     -5.737  0.0000E+00  0.8000E+00
     -5.665  0.0000E+00  0.8000E+00
     -5.592  0.0000E+00  0.8000E+00
     -5.520  0.0000E+00  0.8000E+00
     -5.448  0.0000E+00  0.8000E+00
     -5.376  0.0000E+00  0.8000E+00
     -5.304  0.0000E+00  0.8000E+00
     -5.231  0.0000E+00  0.8000E+00
     -5.159  0.0000E+00  0.8000E+00
     -5.087  0.0000E+00  0.8000E+00
     -5.015  0.0000E+00  0.8000E+00
     -4.943  0.0000E+00  0.8000E+00
     -4.871  0.0000E+00  0.8000E+00
     -4.798  0.0000E+00  0.8000E+00
     -4.726  0.0000E+00  0.8000E+00
     -4.654  0.0000E+00  0.8000E+00
     -4.582  0.0000E+00  0.8000E+00
     -4.510  0.0000E+00  0.8000E+00
     -4.437  0.0000E+00  0.8000E+00
     -4.365  0.0000E+00  0.8000E+00
     -4.293  0.0000E+00  0.8000E+00
     -4.221  0.0000E+00  0.8000E+00
     -4.149  0.0000E+00  0.8000E+00
     -4.076  0.0000E+00  0.8000E+00
     -4.004  0.0000E+00  0.8000E+00
     -3.932  0.0000E+00  0.8000E+00
     -3.860  0.0000E+00  0.8000E+00
     -3.788  0.0000E+00  0.8000E+00
     -3.716  0.0000E+00  0.8000E+00
     -3.643  0.0000E+00  0.8000E+00
     -3.571  0.0000E+00  0.8000E+00
     -3.499  0.0000E+00  0.8000E+00
     -3.427  0.0000E+00  0.8000E+00
     -3.355  0.0000E+00  0.8000E+00
     -3.282  0.0000E+00  0.8000E+00
     -3.210  0.0000E+00  0.8000E+00
     -3.138  0.0000E+00  0.8000E+00
     -3.066  0.0000E+00  0.8000E+00
     -2.994  0.0000E+00  0.8000E+00
     -2.922  0.0000E+00  0.8000E+00
     -2.849  0.0000E+00  0.8000E+00
     -2.777  0.0000E+00  0.8000E+00
     -2.705  0.0000E+00  0.8000E+00
     -2.633  0.0000E+00  0.8000E+00
     -2.561  0.0000E+00  0.8000E+00
     -2.488  0.0000E+00  0.8000E+00
     -2.416  0.0000E+00  0.8000E+00
     -2.344  0.0000E+00  0.8000E+00
     -2.272  0.0000E+00  0.8000E+00
     -2.200  0.0000E+00  0.8000E+00
     -2.128  0.0000E+00  0.8000E+00
     -2.055  0.0000E+00  0.8000E+00
     -1.983  0.0000E+00  0.8000E+00
     -1.911  0.0000E+00  0.8000E+00
     -1.839  0.0000E+00  0.8000E+00
     -1.767  0.0000E+00  0.8000E+00
     -1.694  0.0000E+00  0.8000E+00
     -1.622  0.0000E+00  0.8000E+00
     -1.550  0.0000E+00  0.8000E+00
     -1.478  0.1538E-15  0.8000E+00
     -1.406  0.8882E-14  0.8000E+00
     -1.334  0.4437E-12  0.8000E+00
     -1.261  0.1707E-10  0.8000E+00
     -1.189  0.5078E-09  0.8000E+00
     -1.117  0.1168E-07  0.8000E+00
     -1.045  0.2080E-06  0.8000E+00
     -0.973  0.2865E-05  0.8000E+00
     -0.900  0.3055E-04  0.8000E+00
     -0.828  0.2522E-03  0.8000E+00
     -0.756  0.1612E-02  0.8001E+00
     -0.684  0.7982E-02  0.8007E+00
     -0.612  0.3061E-01  0.8029E+00
     -0.540  0.9097E-01  0.8095E+00
     -0.467  0.2095E+00  0.8246E+00
     -0.395  0.3738E+00  0.8516E+00
     -0.323  0.5171E+00  0.8889E+00
     -0.251  0.5543E+00  0.9289E+00
     -0.179  0.4606E+00  0.9622E+00
     -0.106  0.2967E+00  0.9836E+00
     -0.034  0.1481E+00  0.9943E+00
      0.038  0.5771E-01  0.9984E+00
      0.110  0.1975E-01  0.9999E+00
      0.182  0.1626E-01  0.1001E+01
      0.254  0.4684E-01  0.1004E+01
      0.327  0.1380E+00  0.1014E+01
      0.399  0.3315E+00  0.1038E+01
      0.471  0.6482E+00  0.1085E+01
      0.543  0.1041E+01  0.1160E+01
      0.615  0.1378E+01  0.1260E+01
      0.688  0.1502E+01  0.1368E+01
      0.760  0.1336E+01  0.1465E+01
      0.832  0.9585E+00  0.1534E+01
      0.904  0.5492E+00  0.1573E+01
      0.976  0.2491E+00  0.1591E+01
      1.048  0.8879E-01  0.1598E+01
      1.121  0.2477E-01  0.1600E+01
      1.193  0.5390E-02  0.1600E+01
      1.265  0.9132E-03  0.1600E+01
      1.337  0.1203E-03  0.1600E+01
      1.409  0.1230E-04  0.1600E+01
      1.482  0.9764E-06  0.1600E+01
      1.554  0.6011E-07  0.1600E+01
      1.626  0.2869E-08  0.1600E+01
      1.698  0.1061E-09  0.1600E+01
      1.770  0.3042E-11  0.1600E+01
      1.842  0.6752E-13  0.1600E+01
      1.915  0.1077E-14  0.1600E+01
      1.987  0.0000E+00  0.1600E+01
      2.059  0.0000E+00  0.1600E+01
      2.131  0.0000E+00  0.1600E+01
      2.203  0.0000E+00  0.1600E+01
      2.276  0.0000E+00  0.1600E+01
      2.348  0.0000E+00  0.1600E+01
      2.420  0.0000E+00  0.1600E+01
      2.492  0.0000E+00  0.1600E+01
      2.564  0.0000E+00  0.1600E+01
      2.636  0.0000E+00  0.1600E+01
      2.709  0.0000E+00  0.1600E+01
