    5    5   10    1
  0.2054695E+03  0.1019888E-08  0.9999775E-09  0.1008012E-08  0.5000000E-15
  1.000000000000000E-004
  CAR 
 unknown system                          
      8      4      8
 
  0.2500000E+00  0.2500000E+00  0.2500000E+00  0.2500000E+00
    1      -16.946417   1.000000
    2       -9.369377   1.000000
    3       -9.331342   1.000000
    4       -9.260344   1.000000
    5       -0.299855   0.000000
    6        0.524688   0.000000
    7        0.651198   0.000000
    8        0.679139   0.000000
 
 -0.2500000E+00  0.2500000E+00  0.2500000E+00  0.2500000E+00
    1      -16.946370   1.000000
    2       -9.369201   1.000000
    3       -9.331198   1.000000
    4       -9.260159   1.000000
    5       -0.308217   0.000000
    6        0.543125   0.000000
    7        0.667975   0.000000
    8        0.696417   0.000000
 
  0.2500000E+00 -0.2500000E+00  0.2500000E+00  0.2500000E+00
    1      -16.946363   1.000000
    2       -9.369317   1.000000
    3       -9.331230   1.000000
    4       -9.260216   1.000000
    5       -0.307366   0.000000
    6        0.540695   0.000000
    7        0.661059   0.000000
    8        0.699716   0.000000
 
 -0.2500000E+00 -0.2500000E+00  0.2500000E+00  0.2500000E+00
    1      -16.946347   1.000000
    2       -9.369265   1.000000
    3       -9.331272   1.000000
    4       -9.260262   1.000000
    5       -0.309055   0.000000
    6        0.548046   0.000000
    7        0.669032   0.000000
    8        0.699085   0.000000
