       N       E                     dE             d eps       ncg     rms          rms(c)
DAV:   1     0.118401698904E+02    0.11840E+02   -0.19705E+03    96   0.411E+02
DAV:   2    -0.235327484101E+02   -0.35373E+02   -0.35373E+02    64   0.112E+02
DAV:   3    -0.272804100963E+02   -0.37477E+01   -0.37477E+01    64   0.440E+01
DAV:   4    -0.274259842768E+02   -0.14557E+00   -0.14557E+00   128   0.928E+00
DAV:   5    -0.274260324996E+02   -0.48223E-04   -0.48223E-04    96   0.186E-01    0.856E+00
RMM:   6    -0.246321352247E+02    0.27939E+01   -0.51628E+00    64   0.138E+01    0.423E+00
RMM:   7    -0.241579514375E+02    0.47418E+00   -0.11355E+00    64   0.614E+00    0.225E+00
RMM:   8    -0.240131889152E+02    0.14476E+00   -0.16223E-01    64   0.286E+00    0.228E-01
RMM:   9    -0.240076048337E+02    0.55841E-02   -0.10850E-02    64   0.689E-01    0.194E-01
RMM:  10    -0.240012529836E+02    0.63519E-02   -0.24741E-02    64   0.854E-01    0.275E-01
RMM:  11    -0.240019995638E+02   -0.74658E-03   -0.84574E-03    64   0.569E-01    0.861E-02
RMM:  12    -0.240114806999E+02   -0.94811E-02   -0.33857E-03    64   0.358E-01    0.123E-01
RMM:  13    -0.240119859670E+02   -0.50527E-03   -0.97207E-04    64   0.172E-01    0.493E-02
RMM:  14    -0.240148700139E+02   -0.28840E-02   -0.15395E-03    64   0.239E-01    0.368E-02
RMM:  15    -0.240150834476E+02   -0.21343E-03   -0.51918E-05    64   0.470E-02    0.179E-02
RMM:  16    -0.240153000114E+02   -0.21656E-03   -0.17056E-04    64   0.772E-02    0.122E-02
RMM:  17    -0.240153253748E+02   -0.25363E-04   -0.37054E-05    64   0.348E-02    0.245E-03
RMM:  18    -0.240153394347E+02   -0.14060E-04   -0.10747E-06    48   0.855E-03    0.817E-04
RMM:  19    -0.240153426473E+02   -0.32127E-05   -0.40068E-07    48   0.404E-03    0.409E-04
RMM:  20    -0.240153440865E+02   -0.14391E-05   -0.59159E-08    44   0.170E-03    0.210E-04
RMM:  21    -0.240153442640E+02   -0.17752E-06    0.00000E+00    32   0.137E-03
    1 T=     0. E= -.24015142E+02 F= -.24015344E+02 E0= -.24015344E+02  EK= 0.20218E-03 SP= 0.00E+00 SK= 0.00E+00
       N       E                     dE             d eps       ncg     rms          rms(c)
DAV:   1    -0.240169017381E+02   -0.15577E-02   -0.17191E-03    80   0.390E-01    0.201E-02
RMM:   2    -0.240168938095E+02    0.79286E-05   -0.46140E-05    64   0.548E-02    0.101E-02
RMM:   3    -0.240168935454E+02    0.26416E-06   -0.16831E-05    64   0.265E-02    0.390E-03
RMM:   4    -0.240168934121E+02    0.13330E-06   -0.54031E-07    48   0.619E-03
    2 T=     3. E= -.24015170E+02 F= -.24016893E+02 E0= -.24016893E+02  EK= 0.17237E-02 SP= 0.00E+00 SK= 0.00E+00
       N       E                     dE             d eps       ncg     rms          rms(c)
DAV:   1    -0.240195631648E+02   -0.26696E-02   -0.13332E-03    80   0.363E-01    0.569E-03
RMM:   2    -0.240195681339E+02   -0.49692E-05   -0.51555E-05    64   0.633E-02    0.237E-03
RMM:   3    -0.240195686192E+02   -0.48534E-06   -0.18998E-06    52   0.121E-02    0.200E-03
RMM:   4    -0.240195689504E+02   -0.33119E-06   -0.53826E-07    48   0.634E-03
    3 T=     8. E= -.24015216E+02 F= -.24019569E+02 E0= -.24019569E+02  EK= 0.43531E-02 SP= 0.00E+00 SK= 0.00E+00
       N       E                     dE             d eps       ncg     rms          rms(c)
DAV:   1    -0.240226539755E+02   -0.30854E-02   -0.35587E-04    72   0.156E-01    0.876E-03
RMM:   2    -0.240226526029E+02    0.13725E-05   -0.18230E-05    64   0.360E-02    0.481E-03
RMM:   3    -0.240226528764E+02   -0.27342E-06   -0.82819E-06    61   0.171E-02    0.159E-03
RMM:   4    -0.240226530522E+02   -0.17584E-06   -0.33195E-07    48   0.450E-03
    4 T=    14. E= -.24015269E+02 F= -.24022653E+02 E0= -.24022653E+02  EK= 0.73842E-02 SP= 0.00E+00 SK= 0.00E+00
       N       E                     dE             d eps       ncg     rms          rms(c)
DAV:   1    -0.240253075013E+02   -0.26546E-02   -0.48405E-04    72   0.180E-01    0.454E-03
RMM:   2    -0.240253091836E+02   -0.16823E-05   -0.42780E-06    63   0.184E-02    0.202E-03
RMM:   3    -0.240253112873E+02   -0.21037E-05   -0.93881E-07    48   0.719E-03    0.684E-04
RMM:   4    -0.240253125737E+02   -0.12864E-05   -0.13162E-07    48   0.319E-03    0.409E-04
RMM:   5    -0.240253147986E+02   -0.22249E-05   -0.16702E-07    48   0.240E-03    0.352E-04
RMM:   6    -0.240253152325E+02   -0.43389E-06    0.00000E+00    32   0.151E-03
    5 T=    19. E= -.24015314E+02 F= -.24025315E+02 E0= -.24025315E+02  EK= 0.10001E-01 SP= 0.00E+00 SK= 0.00E+00
       N       E                     dE             d eps       ncg     rms          rms(c)
DAV:   1    -0.240268592242E+02   -0.15444E-02   -0.67085E-04    64   0.203E-01    0.954E-03
RMM:   2    -0.240268585870E+02    0.63716E-06   -0.13276E-05    64   0.286E-02    0.560E-03
RMM:   3    -0.240268607808E+02   -0.21938E-05   -0.16629E-05    64   0.238E-02    0.329E-03
RMM:   4    -0.240268603410E+02    0.43981E-06   -0.11183E-06    48   0.744E-03
    6 T=    22. E= -.24015342E+02 F= -.24026860E+02 E0= -.24026860E+02  EK= 0.11518E-01 SP= 0.00E+00 SK= 0.00E+00
       N       E                     dE             d eps       ncg     rms          rms(c)
DAV:   1    -0.240269320442E+02   -0.71263E-04   -0.57693E-04    64   0.201E-01    0.339E-03
RMM:   2    -0.240269349311E+02   -0.28870E-05   -0.53844E-06    60   0.204E-02    0.149E-03
RMM:   3    -0.240269381171E+02   -0.31860E-05   -0.75407E-07    48   0.688E-03    0.523E-04
RMM:   4    -0.240269398370E+02   -0.17199E-05   -0.14121E-07    48   0.347E-03    0.415E-04
RMM:   5    -0.240269439142E+02   -0.40772E-05   -0.26838E-07    48   0.281E-03    0.510E-04
RMM:   6    -0.240269443654E+02   -0.45123E-06   -0.21857E-08    36   0.151E-03
    7 T=    22. E= -.24015342E+02 F= -.24026944E+02 E0= -.24026944E+02  EK= 0.11603E-01 SP= 0.00E+00 SK= 0.00E+00
       N       E                     dE             d eps       ncg     rms          rms(c)
DAV:   1    -0.240256652365E+02    0.12787E-02   -0.49560E-04    72   0.192E-01    0.213E-03
RMM:   2    -0.240256705245E+02   -0.52880E-05   -0.47751E-06    63   0.229E-02    0.143E-03
RMM:   3    -0.240256743057E+02   -0.37812E-05   -0.16587E-07    48   0.366E-03    0.905E-04
RMM:   4    -0.240256814336E+02   -0.71279E-05   -0.45059E-07    48   0.406E-03    0.379E-04
RMM:   5    -0.240256847228E+02   -0.32892E-05   -0.13822E-07    48   0.227E-03    0.287E-04
RMM:   6    -0.240256864501E+02   -0.17273E-05   -0.53324E-08    38   0.164E-03    0.249E-04
RMM:   7    -0.240256868529E+02   -0.40280E-06   -0.69418E-08    38   0.178E-03
    8 T=    20. E= -.24015310E+02 F= -.24025687E+02 E0= -.24025687E+02  EK= 0.10377E-01 SP= 0.00E+00 SK= 0.00E+00
       N       E                     dE             d eps       ncg     rms          rms(c)
DAV:   1    -0.240236450053E+02    0.20414E-02   -0.34715E-04    64   0.167E-01    0.153E-03
RMM:   2    -0.240236467795E+02   -0.17742E-05   -0.40823E-06    60   0.200E-02    0.790E-04
RMM:   3    -0.240236477723E+02   -0.99287E-06   -0.16563E-07    48   0.403E-03    0.477E-04
RMM:   4    -0.240236490966E+02   -0.13243E-05   -0.42000E-08    41   0.225E-03    0.176E-04
RMM:   5    -0.240236499971E+02   -0.90047E-06   -0.51073E-08    43   0.178E-03
    9 T=    16. E= -.24015259E+02 F= -.24023650E+02 E0= -.24023650E+02  EK= 0.83905E-02 SP= 0.00E+00 SK= 0.00E+00
       N       E                     dE             d eps       ncg     rms          rms(c)
DAV:   1    -0.240216560625E+02    0.19930E-02   -0.18363E-04    64   0.146E-01    0.105E-03
RMM:   2    -0.240216567026E+02   -0.64008E-06   -0.26020E-06    55   0.185E-02    0.591E-04
RMM:   3    -0.240216569438E+02   -0.24117E-06   -0.13801E-07    45   0.371E-03    0.543E-04
RMM:   4    -0.240216572533E+02   -0.30955E-06   -0.29923E-08    39   0.203E-03
   10 T=    12. E= -.24015211E+02 F= -.24021657E+02 E0= -.24021657E+02  EK= 0.64467E-02 SP= 0.00E+00 SK= 0.00E+00
