 vasp.5.4.4.18Apr17-6-g9f103f2a35 (build Nov 25 2021 15:25:00) complex          
  
 executed on             LinuxIFC date 2022.02.21  10:17:57
 running on   16 total cores
 distrk:  each k-point on   16 cores,    1 groups
 distr:  one band on NCORES_PER_BAND=   4 cores,    4 groups


--------------------------------------------------------------------------------------------------------


 INCAR:
 POTCAR:    PAW_PBE H 15Jun2001                   
 POTCAR:    PAW_PBE C 08Apr2002                   
 POTCAR:    PAW_PBE H 15Jun2001                   
   VRHFIN =H: ultrasoft test                                                    
   LEXCH  = PE                                                                  
   EATOM  =    12.4884 eV,    0.9179 Ry                                         
                                                                                
   TITEL  = PAW_PBE H 15Jun2001                                                 
   LULTRA =        F    use ultrasoft PP ?                                      
   IUNSCR =        0    unscreen: 0-lin 1-nonlin 2-no                           
   RPACOR =    0.000    partial core radius                                     
   POMASS =    1.000; ZVAL   =    1.000    mass and valenz                      
   RCORE  =    1.100    outmost cutoff radius                                   
   RWIGS  =    0.700; RWIGS  =    0.370    wigner-seitz radius (au A)           
   ENMAX  =  250.000; ENMIN  =  200.000 eV                                      
   RCLOC  =    0.701    cutoff for local pot                                    
   LCOR   =        T    correct aug charges                                     
   LPAW   =        T    paw PP                                                  
   EAUG   =  400.000                                                            
   RMAX   =    1.123    core radius for proj-oper                               
   RAUG   =    1.200    factor for augmentation sphere                          
   RDEP   =    1.112    radius for radial grids                                 
   RDEPT  =    0.926    core radius for aug-charge                              
                                                                                
   Atomic configuration                                                         
    2 entries                                                                   
     n  l   j            E        occ.                                          
     1  0  0.50        -6.4927   1.0000                                         
     2  1  0.50        -3.4015   0.0000                                         
   Description                                                                  
     l       E           TYP  RCUT    TYP  RCUT                                 
     0     -6.4927494     23  1.100                                             
     0      6.8029130     23  1.100                                             
     1     -4.0817478     23  1.100                                             
  local pseudopotential read in
  atomic valenz-charges read in
  non local Contribution for L=           0  read in
    real space projection operators read in
  non local Contribution for L=           0  read in
    real space projection operators read in
  non local Contribution for L=           1  read in
    real space projection operators read in
    PAW grid and wavefunctions read in
 
   number of l-projection  operators is LMAX  =           3
   number of lm-projection operators is LMMAX =           5
 
 POTCAR:    PAW_PBE C 08Apr2002                   
   VRHFIN =C: s2p2                                                              
   LEXCH  = PE                                                                  
   EATOM  =   147.1560 eV,   10.8157 Ry                                         
                                                                                
   TITEL  = PAW_PBE C 08Apr2002                                                 
   LULTRA =        F    use ultrasoft PP ?                                      
   IUNSCR =        1    unscreen: 0-lin 1-nonlin 2-no                           
   RPACOR =    1.200    partial core radius                                     
   POMASS =   12.011; ZVAL   =    4.000    mass and valenz                      
   RCORE  =    1.500    outmost cutoff radius                                   
   RWIGS  =    1.630; RWIGS  =    0.863    wigner-seitz radius (au A)           
   ENMAX  =  400.000; ENMIN  =  300.000 eV                                      
   ICORE  =        2    local potential                                         
   LCOR   =        T    correct aug charges                                     
   LPAW   =        T    paw PP                                                  
   EAUG   =  644.873                                                            
   DEXC   =    0.000                                                            
   RMAX   =    1.529    core radius for proj-oper                               
   RAUG   =    1.300    factor for augmentation sphere                          
   RDEP   =    1.501    radius for radial grids                                 
   RDEPT  =    1.300    core radius for aug-charge                              
                                                                                
   Atomic configuration                                                         
    4 entries                                                                   
     n  l   j            E        occ.                                          
     1  0  0.50      -273.3789   2.0000                                         
     2  0  0.50       -13.7508   2.0000                                         
     2  1  0.50        -5.2854   2.0000                                         
     3  2  1.50        -5.4423   0.0000                                         
   Description                                                                  
     l       E           TYP  RCUT    TYP  RCUT                                 
     0    -13.7508458     23  1.200                                             
     0     -8.2022199     23  1.200                                             
     1     -5.2854383     23  1.500                                             
     1     34.0145650     23  1.500                                             
     2     -5.4423304      7  1.500                                             
  local pseudopotential read in
  partial core-charges read in
  partial kinetic energy density read in
  atomic valenz-charges read in
  non local Contribution for L=           0  read in
    real space projection operators read in
  non local Contribution for L=           0  read in
    real space projection operators read in
  non local Contribution for L=           1  read in
    real space projection operators read in
  non local Contribution for L=           1  read in
    real space projection operators read in
    PAW grid and wavefunctions read in
 
   number of l-projection  operators is LMAX  =           4
   number of lm-projection operators is LMMAX =           8
 
  PAW_PBE H 15Jun2001                   :
 energy of atom  1       EATOM=  -12.4884
 kinetic energy error for atom=    0.0098 (will be added to EATOM!!)
  PAW_PBE C 08Apr2002                   :
 energy of atom  2       EATOM= -147.1560
 kinetic energy error for atom=    0.0288 (will be added to EATOM!!)
 
 
 POSCAR:  H  C                                   
  positions in cartesian coordinates
  No initial velocities read in
 exchange correlation table for  LEXCH =        8
   RHO(1)=    0.500       N(1)  =     2000
   RHO(2)=  100.500       N(2)  =     4000

 VTST: version 3.2, (02/03/18)

 CHAIN: initializing optimizer
 
 OPT: Using VASP Dynamics algorithm
 CHAIN: Read ICHAIN            0
 
 POSCAR:  H  C                                   
  positions in cartesian coordinates
  No initial velocities read in
 


--------------------------------------------------------------------------------------------------------


 ion  position               nearest neighbor table
   1  0.538  0.407  0.361-   5 1.10
   2  0.395  0.480  0.438-   5 1.11
   3  0.552  0.565  0.442-   5 1.09
   4  0.528  0.417  0.539-   5 1.11
   5  0.503  0.467  0.445-   3 1.09   1 1.10   4 1.11   2 1.11
 

IMPORTANT INFORMATION: All symmetrisations will be switched off!
NOSYMM: (Re-)initialisation of all symmetry stuff for point group C_1.

 
 

Automatic generation of k-mesh.
 generate k-points for:    2    2    2
Space group operators:
 irot       det(A)        alpha          n_x          n_y          n_z        tau_x        tau_y        tau_z
    1     1.000000     0.000001     1.000000     0.000000     0.000000     0.000000     0.000000     0.000000
 
 Subroutine IBZKPT returns following result:
 ===========================================
 
 Found      4 irreducible k-points:
 
 Following reciprocal coordinates:
            Coordinates               Weight
  0.250000  0.250000  0.250000      2.000000
 -0.250000  0.250000  0.250000      2.000000
  0.250000 -0.250000  0.250000      2.000000
 -0.250000 -0.250000  0.250000      2.000000
 
 Following cartesian coordinates:
            Coordinates               Weight
  0.024513  0.025379  0.025973      2.000000
 -0.024513  0.024628  0.024659      2.000000
  0.024513 -0.024628  0.024971      2.000000
 -0.024513 -0.025379  0.023657      2.000000
 


--------------------------------------------------------------------------------------------------------




 Dimension of arrays:
   k-points           NKPTS =      4   k-points in BZ     NKDIM =      4   number of bands    NBANDS=      8
   number of dos      NEDOS =    301   number of ions     NIONS =      5
   non local maximal  LDIM  =      4   non local SUM 2l+1 LMDIM =      8
   total plane-waves  NPLWV = 343000
   max r-space proj   IRMAX =      1   max aug-charges    IRDMAX=   4139
   dimension x,y,z NGX =    70 NGY =   70 NGZ =   70
   dimension x,y,z NGXF=   140 NGYF=  140 NGZF=  140
   support grid    NGXF=   140 NGYF=  140 NGZF=  140
   ions per type =               4   1
   NGX,Y,Z   is equivalent  to a cutoff of  11.41, 11.64, 11.54 a.u.
   NGXF,Y,Z  is equivalent  to a cutoff of  22.82, 23.27, 23.09 a.u.

 SYSTEM =  unknown system                          
 POSCAR =   H  C                                   

 Startparameter for this run:
   NWRITE =      2    write-flag & timer
   PREC   = a         normal or accurate (medium, high low for compatibility)
   ISTART =      0    job   : 0-new  1-cont  2-samecut
   ICHARG =      2    charge: 1-file 2-atom 10-const
   ISPIN  =      1    spin polarized calculation?
   LNONCOLLINEAR =      F non collinear calculations
   LSORBIT =      F    spin-orbit coupling
   INIWAV =      1    electr: 0-lowe 1-rand  2-diag
   LASPH  =      F    aspherical Exc in radial PAW
   METAGGA=      F    non-selfconsistent MetaGGA calc.

 Electronic Relaxation 1
   ENCUT  =  400.0 eV  29.40 Ry    5.42 a.u.  16.63 16.31 16.44*2*pi/ulx,y,z
   ENINI  =  400.0     initial cutoff
   ENAUG  =  644.9 eV  augmentation charge cutoff
   NELM   =    120;   NELMIN=  4; NELMDL= -5     # of ELM steps 
   EDIFF  = 0.1E-05   stopping-criterion for ELM
   LREAL  =      F    real-space projection
   NLSPLINE    = F    spline interpolate recip. space projectors
   LCOMPAT=      F    compatible to vasp.4.4
   GGA_COMPAT  = T    GGA compatible to vasp.4.4-vasp.4.6
   LMAXPAW     = -100 max onsite density
   LMAXMIX     =    2 max onsite mixed and CHGCAR
   VOSKOWN=      0    Vosko Wilk Nusair interpolation
   ROPT   =    0.00000   0.00000
 Ionic relaxation
   EDIFFG = 0.1E-04   stopping-criterion for IOM
   NSW    =     10    number of steps for IOM
   NBLOCK =      1;   KBLOCK =     10    inner block; outer block 
   IBRION =      0    ionic relax: 0-MD 1-quasi-New 2-CG
   NFREE  =      0    steps in history (QN), initial steepest desc. (CG)
   ISIF   =      2    stress and relaxation
   IWAVPR =     12    prediction:  0-non 1-charg 2-wave 3-comb
   ISYM   =      0    0-nonsym 1-usesym 2-fastsym
   LCORR  =      T    Harris-Foulkes like correction to forces

   POTIM  = 0.5000    time-step for ionic-motion
   TEIN   =    0.0    initial temperature
   TEBEG  =    0.0;   TEEND  =   0.0 temperature during run
   SMASS  =  -3.00    Nose mass-parameter (am)
   estimated Nose-frequenzy (Omega)   =  0.10E-29 period in steps =****** mass=  -0.238E-26a.u.
   SCALEE = 1.0000    scale energy and forces
   NPACO  =    256;   APACO  = 16.0  distance and # of slots for P.C.
   PSTRESS=    0.0 pullay stress

  Mass of Ions in am
   POMASS =   1.00 12.01
  Ionic Valenz
   ZVAL   =   1.00  4.00
  Atomic Wigner-Seitz radii
   RWIGS  =  -1.00 -1.00
  virtual crystal weights 
   VCA    =   1.00  1.00
   NELECT =       8.0000    total number of electrons
   NUPDOWN=      -1.0000    fix difference up-down

 DOS related values:
   EMIN   =  10.00;   EMAX   =-10.00  energy-range for DOS
   EFERMI =   0.00
   ISMEAR =     0;   SIGMA  =   0.20  broadening in eV -4-tet -1-fermi 0-gaus

 Electronic relaxation 2 (details)
   IALGO  =     68    algorithm
   LDIAG  =      T    sub-space diagonalisation (order eigenvalues)
   LSUBROT=      F    optimize rotation matrix (better conditioning)
   TURBO    =      0    0=normal 1=particle mesh
   IRESTART =      0    0=no restart 2=restart with 2 vectors
   NREBOOT  =      0    no. of reboots
   NMIN     =      0    reboot dimension
   EREF     =   0.00    reference energy to select bands
   IMIX   =      4    mixing-type and parameters
     AMIX     =   0.40;   BMIX     =  1.00
     AMIX_MAG =   1.60;   BMIX_MAG =  1.00
     AMIN     =   0.10
     WC   =   100.;   INIMIX=   1;  MIXPRE=   1;  MAXMIX= -45

 Intra band minimization:
   WEIMIN = 0.0010     energy-eigenvalue tresh-hold
   EBREAK =  0.31E-07  absolut break condition
   DEPER  =   0.30     relativ break condition  

   TIME   =   0.40     timestep for ELM

  volume/ion in A,a.u.               =     205.47      1386.58
  Fermi-wavevector in a.u.,A,eV,Ry     =   0.324488  0.613194  1.432593  0.105293
  Thomas-Fermi vector in A             =   1.214656
 
 Write flags
   LWAVE        =      F    write WAVECAR
   LDOWNSAMPLE  =      F    k-point downsampling of WAVECAR
   LCHARG       =      F    write CHGCAR
   LVTOT        =      F    write LOCPOT, total local potential
   LVHAR        =      F    write LOCPOT, Hartree potential only
   LELF         =      F    write electronic localiz. function (ELF)
   LORBIT       =      0    0 simple, 1 ext, 2 COOP (PROOUT), +10 PAW based schemes


 Dipole corrections
   LMONO  =      F    monopole corrections only (constant potential shift)
   LDIPOL =      F    correct potential (dipole corrections)
   IDIPOL =      0    1-x, 2-y, 3-z, 4-all directions 
   EPSILON=  1.0000000 bulk dielectric constant

 Exchange correlation treatment:
   GGA     =    --    GGA type
   LEXCH   =     8    internal setting for exchange type
   VOSKOWN=      0    Vosko Wilk Nusair interpolation
   LHFCALC =     F    Hartree Fock is set to
   LHFONE  =     F    Hartree Fock one center treatment
   AEXX    =    0.0000 exact exchange contribution

 Linear response parameters
   LEPSILON=     F    determine dielectric tensor
   LRPA    =     F    only Hartree local field effects (RPA)
   LNABLA  =     F    use nabla operator in PAW spheres
   LVEL    =     F    velocity operator in full k-point grid
   LINTERFAST=   F  fast interpolation
   KINTER  =     0    interpolate to denser k-point grid
   CSHIFT  =0.1000    complex shift for real part using Kramers Kronig
   OMEGAMAX=  -1.0    maximum frequency
   DEG_THRESHOLD= 0.2000000E-02 threshold for treating states as degnerate
   RTIME   =   -0.100 relaxation time in fs
  (WPLASMAI=    0.000 imaginary part of plasma frequency in eV, 0.658/RTIME)
   DFIELD  = 0.0000000 0.0000000 0.0000000 field for delta impulse in time
 
 Orbital magnetization related:
   ORBITALMAG=     F  switch on orbital magnetization
   LCHIMAG   =     F  perturbation theory with respect to B field
   DQ        =  0.001000  dq finite difference perturbation B field
   LLRAUG    =     F  two centre corrections for induced B field



--------------------------------------------------------------------------------------------------------


 molecular dynamics for ions
   using a microcanonical ensemble
 charge density and potential will be updated during run
 non-spin polarized calculation
 RMM-DIIS sequential band-by-band and
  variant of blocked Davidson during initial phase
 perform sub-space diagonalisation
    before iterative eigenvector-optimisation
 modified Broyden-mixing scheme, WC =      100.0
 initial mixing is a Kerker type mixing with AMIX =  0.4000 and BMIX =      1.0000
 Hartree-type preconditioning will be used
 using additional bands            4
 reciprocal scheme for non local part
 use partial core corrections
 calculate Harris-corrections to forces 
   (improved forces if not selfconsistent)
 use gradient corrections 
 use of overlap-Matrix (Vanderbilt PP)
 Gauss-broadening in eV      SIGMA  =   0.20


--------------------------------------------------------------------------------------------------------


  energy-cutoff  :      400.00
  volume of cell :     1027.35
      direct lattice vectors                 reciprocal lattice vectors
    10.198875491  0.000000000  0.000000000     0.098050025  0.001503359  0.002628400
    -0.153304240  9.998599610  0.000000000     0.000000000  0.100014006  0.002004988
    -0.266969158 -0.201965308 10.074556260     0.000000000  0.000000000  0.099259955

  length of vectors
    10.198875491  9.999774815 10.080116386     0.098096769  0.100034101  0.099259955


 
 k-points in units of 2pi/SCALE and weight: read from INCAR                         
   0.02451251  0.02537934  0.02597334       0.250
  -0.02451251  0.02462766  0.02465914       0.250
   0.02451251 -0.02462766  0.02497084       0.250
  -0.02451251 -0.02537934  0.02365664       0.250
 
 k-points in reciprocal lattice and weights: read from INCAR                         
   0.25000000  0.25000000  0.25000000       0.250
  -0.25000000  0.25000000  0.25000000       0.250
   0.25000000 -0.25000000  0.25000000       0.250
  -0.25000000 -0.25000000  0.25000000       0.250
 
 position of ions in fractional coordinates (direct lattice) 
   0.53774876  0.40743960  0.36058013
   0.39475689  0.48035402  0.43825352
   0.55225553  0.56524519  0.44217971
   0.52801244  0.41659551  0.53939180
   0.50307141  0.46741785  0.44514590
 
 position of ions in cartesian coordinates  (Angst):
   5.32570668  4.00100072  3.63268476
   3.83543586  4.71435553  4.41520970
   5.42768257  5.56235538  4.45476437
   5.17726634  4.05643332  5.43413300
   4.94026533  4.58361992  4.48464743
 


--------------------------------------------------------------------------------------------------------


 k-point  1 :   0.2500 0.2500 0.2500  plane waves:   18684
 k-point  2 :  -0.2500 0.2500 0.2500  plane waves:   18645
 k-point  3 :   0.2500-0.2500 0.2500  plane waves:   18656
 k-point  4 :  -0.2500-0.2500 0.2500  plane waves:   18650

 maximum and minimum number of plane-waves per node :      4684     4654

 maximum number of plane-waves:     18684
 maximum index in each direction: 
   IXMAX=   16   IYMAX=   16   IZMAX=   16
   IXMIN=  -16   IYMIN=  -16   IZMIN=  -16


 parallel 3D FFT for wavefunctions:
    minimum data exchange during FFTs selected (reduces bandwidth)
 parallel 3D FFT for charge:
    minimum data exchange during FFTs selected (reduces bandwidth)


 total amount of memory used by VASP MPI-rank0    55482. kBytes
=======================================================================

   base      :      30000. kBytes
   nonl-proj :       2772. kBytes
   fftplans  :       8576. kBytes
   grid      :      13527. kBytes
   one-center:          6. kBytes
   wavefun   :        601. kBytes
 
     INWAV:  cpu time    0.0000: real time    0.0000
 Broyden mixing: mesh for mixing (old mesh)
   NGX = 33   NGY = 33   NGZ = 33
  (NGX  =140   NGY  =140   NGZ  =140)
  gives a total of  35937 points

 initial charge density was supplied:
 charge density of overlapping atoms calculated
 number of electron       8.0000000 magnetization 
 keeping initial charge density in first step


--------------------------------------------------------------------------------------------------------


 Maximum index for augmentation-charges          166 (set IRDMAX)


--------------------------------------------------------------------------------------------------------


 First call to EWALD:  gamma=   0.176
 Maximum number of real-space cells 3x 3x 3
 Maximum number of reciprocal cells 3x 3x 3

    FEWALD:  cpu time    0.0025: real time    0.0025


--------------------------------------- Iteration      1(   1)  ---------------------------------------


    POTLOK:  cpu time    0.1697: real time    0.1802
    SETDIJ:  cpu time    0.0043: real time    0.0051
     EDDAV:  cpu time    0.2040: real time    0.2222
       DOS:  cpu time    0.0016: real time    0.0018
    --------------------------------------------
      LOOP:  cpu time    0.3795: real time    0.4093

 eigenvalue-minimisations  :    96
 total energy-change (2. order) : 0.1184017E+02  (-0.1970535E+03)
 number of electron       8.0000000 magnetization 
 augmentation part        8.0000000 magnetization 

 Free energy of the ion-electron system (eV)
  ---------------------------------------------------
  alpha Z        PSCENC =         0.23580218
  Ewald energy   TEWEN  =       127.88001520
  -Hartree energ DENC   =      -244.05190289
  -exchange      EXHF   =         0.00000000
  -V(xc)+E(xc)   XCENC  =        21.96232095
  PAW double counting   =       117.05815612     -117.66307307
  entropy T*S    EENTRO =        -0.00000000
  eigenvalues    EBANDS =       -90.62290314
  atomic energy  EATOM  =       197.04175453
  Solvation  Ediel_sol  =         0.00000000
  ---------------------------------------------------
  free energy    TOTEN  =        11.84016989 eV

  energy without entropy =       11.84016989  energy(sigma->0) =       11.84016989


--------------------------------------------------------------------------------------------------------




--------------------------------------- Iteration      1(   2)  ---------------------------------------


     EDDAV:  cpu time    0.1507: real time    0.1507
       DOS:  cpu time    0.0002: real time    0.0002
    --------------------------------------------
      LOOP:  cpu time    0.1509: real time    0.1509

 eigenvalue-minimisations  :    64
 total energy-change (2. order) :-0.3537292E+02  (-0.3537292E+02)
 number of electron       8.0000000 magnetization 
 augmentation part        8.0000000 magnetization 

 Free energy of the ion-electron system (eV)
  ---------------------------------------------------
  alpha Z        PSCENC =         0.23580218
  Ewald energy   TEWEN  =       127.88001520
  -Hartree energ DENC   =      -244.05190289
  -exchange      EXHF   =         0.00000000
  -V(xc)+E(xc)   XCENC  =        21.96232095
  PAW double counting   =       117.05815612     -117.66307307
  entropy T*S    EENTRO =        -0.00000000
  eigenvalues    EBANDS =      -125.99582144
  atomic energy  EATOM  =       197.04175453
  Solvation  Ediel_sol  =         0.00000000
  ---------------------------------------------------
  free energy    TOTEN  =       -23.53274841 eV

  energy without entropy =      -23.53274841  energy(sigma->0) =      -23.53274841


--------------------------------------------------------------------------------------------------------




--------------------------------------- Iteration      1(   3)  ---------------------------------------


     EDDAV:  cpu time    0.1499: real time    0.1500
       DOS:  cpu time    0.0002: real time    0.0002
    --------------------------------------------
      LOOP:  cpu time    0.1502: real time    0.1503

 eigenvalue-minimisations  :    64
 total energy-change (2. order) :-0.3747662E+01  (-0.3747662E+01)
 number of electron       8.0000000 magnetization 
 augmentation part        8.0000000 magnetization 

 Free energy of the ion-electron system (eV)
  ---------------------------------------------------
  alpha Z        PSCENC =         0.23580218
  Ewald energy   TEWEN  =       127.88001520
  -Hartree energ DENC   =      -244.05190289
  -exchange      EXHF   =         0.00000000
  -V(xc)+E(xc)   XCENC  =        21.96232095
  PAW double counting   =       117.05815612     -117.66307307
  entropy T*S    EENTRO =        -0.00000000
  eigenvalues    EBANDS =      -129.74348313
  atomic energy  EATOM  =       197.04175453
  Solvation  Ediel_sol  =         0.00000000
  ---------------------------------------------------
  free energy    TOTEN  =       -27.28041010 eV

  energy without entropy =      -27.28041010  energy(sigma->0) =      -27.28041010


--------------------------------------------------------------------------------------------------------




--------------------------------------- Iteration      1(   4)  ---------------------------------------


     EDDAV:  cpu time    0.2508: real time    0.2539
       DOS:  cpu time    0.0002: real time    0.0002
    --------------------------------------------
      LOOP:  cpu time    0.2510: real time    0.2542

 eigenvalue-minimisations  :   128
 total energy-change (2. order) :-0.1455742E+00  (-0.1455742E+00)
 number of electron       8.0000000 magnetization 
 augmentation part        8.0000000 magnetization 

 Free energy of the ion-electron system (eV)
  ---------------------------------------------------
  alpha Z        PSCENC =         0.23580218
  Ewald energy   TEWEN  =       127.88001520
  -Hartree energ DENC   =      -244.05190289
  -exchange      EXHF   =         0.00000000
  -V(xc)+E(xc)   XCENC  =        21.96232095
  PAW double counting   =       117.05815612     -117.66307307
  entropy T*S    EENTRO =        -0.00000000
  eigenvalues    EBANDS =      -129.88905731
  atomic energy  EATOM  =       197.04175453
  Solvation  Ediel_sol  =         0.00000000
  ---------------------------------------------------
  free energy    TOTEN  =       -27.42598428 eV

  energy without entropy =      -27.42598428  energy(sigma->0) =      -27.42598428


--------------------------------------------------------------------------------------------------------




--------------------------------------- Iteration      1(   5)  ---------------------------------------


     EDDAV:  cpu time    0.1985: real time    0.1985
       DOS:  cpu time    0.0002: real time    0.0002
    CHARGE:  cpu time    0.0222: real time    0.0222
    MIXING:  cpu time    0.0045: real time    0.0045
    --------------------------------------------
      LOOP:  cpu time    0.2254: real time    0.2254

 eigenvalue-minimisations  :    96
 total energy-change (2. order) :-0.4822287E-04  (-0.4822289E-04)
 number of electron       8.0000001 magnetization 
 augmentation part        0.2221349 magnetization 

 Broyden mixing:
  rms(total) = 0.85614E+00    rms(broyden)= 0.85593E+00
  rms(prec ) = 0.12114E+01
  weight for this iteration     100.00

 Free energy of the ion-electron system (eV)
  ---------------------------------------------------
  alpha Z        PSCENC =         0.23580218
  Ewald energy   TEWEN  =       127.88001520
  -Hartree energ DENC   =      -244.05190289
  -exchange      EXHF   =         0.00000000
  -V(xc)+E(xc)   XCENC  =        21.96232095
  PAW double counting   =       117.05815612     -117.66307307
  entropy T*S    EENTRO =        -0.00000000
  eigenvalues    EBANDS =      -129.88910553
  atomic energy  EATOM  =       197.04175453
  Solvation  Ediel_sol  =         0.00000000
  ---------------------------------------------------
  free energy    TOTEN  =       -27.42603250 eV

  energy without entropy =      -27.42603250  energy(sigma->0) =      -27.42603250


--------------------------------------------------------------------------------------------------------




--------------------------------------- Iteration      1(   6)  ---------------------------------------


    POTLOK:  cpu time    0.1623: real time    0.1623
    SETDIJ:  cpu time    0.0021: real time    0.0021
    EDDIAG:  cpu time    0.0420: real time    0.0523
  RMM-DIIS:  cpu time    0.1673: real time    0.1673
    ORTHCH:  cpu time    0.0017: real time    0.0017
       DOS:  cpu time    0.0002: real time    0.0002
    CHARGE:  cpu time    0.0212: real time    0.0213
    MIXING:  cpu time    0.0054: real time    0.0072
    --------------------------------------------
      LOOP:  cpu time    0.4022: real time    0.4143

 eigenvalue-minimisations  :    64
 total energy-change (2. order) : 0.2793897E+01  (-0.5162786E+00)
 number of electron       8.0000001 magnetization 
 augmentation part        0.1958236 magnetization 

 Broyden mixing:
  rms(total) = 0.42266E+00    rms(broyden)= 0.42257E+00
  rms(prec ) = 0.54719E+00
  weight for this iteration     100.00

 eigenvalues of (default mixing * dielectric matrix)
  average eigenvalue GAMMA=   1.2993
  1.2993

 Free energy of the ion-electron system (eV)
  ---------------------------------------------------
  alpha Z        PSCENC =         0.23580218
  Ewald energy   TEWEN  =       127.88001520
  -Hartree energ DENC   =      -263.43903881
  -exchange      EXHF   =         0.00000000
  -V(xc)+E(xc)   XCENC  =        23.13934576
  PAW double counting   =       235.52623631     -236.30126780
  entropy T*S    EENTRO =        -0.00000000
  eigenvalues    EBANDS =      -108.71498259
  atomic energy  EATOM  =       197.04175453
  Solvation  Ediel_sol  =         0.00000000
  ---------------------------------------------------
  free energy    TOTEN  =       -24.63213522 eV

  energy without entropy =      -24.63213522  energy(sigma->0) =      -24.63213522


--------------------------------------------------------------------------------------------------------




--------------------------------------- Iteration      1(   7)  ---------------------------------------


    POTLOK:  cpu time    0.1558: real time    0.1558
    SETDIJ:  cpu time    0.0023: real time    0.0023
    EDDIAG:  cpu time    0.0366: real time    0.0366
  RMM-DIIS:  cpu time    0.1608: real time    0.1608
    ORTHCH:  cpu time    0.0017: real time    0.0017
       DOS:  cpu time    0.0002: real time    0.0002
    CHARGE:  cpu time    0.0192: real time    0.0192
    MIXING:  cpu time    0.0050: real time    0.0050
    --------------------------------------------
      LOOP:  cpu time    0.3816: real time    0.3817

 eigenvalue-minimisations  :    64
 total energy-change (2. order) : 0.4741838E+00  (-0.1135470E+00)
 number of electron       8.0000001 magnetization 
 augmentation part        0.1856719 magnetization 

 Broyden mixing:
  rms(total) = 0.22546E+00    rms(broyden)= 0.22540E+00
  rms(prec ) = 0.27268E+00
  weight for this iteration     100.00

 eigenvalues of (default mixing * dielectric matrix)
  average eigenvalue GAMMA=   1.8403
  1.4477  2.2330

 Free energy of the ion-electron system (eV)
  ---------------------------------------------------
  alpha Z        PSCENC =         0.23580218
  Ewald energy   TEWEN  =       127.88001520
  -Hartree energ DENC   =      -274.78858388
  -exchange      EXHF   =         0.00000000
  -V(xc)+E(xc)   XCENC  =        23.97598344
  PAW double counting   =       357.29856372     -358.11028683
  entropy T*S    EENTRO =        -0.00000000
  eigenvalues    EBANDS =       -97.69119980
  atomic energy  EATOM  =       197.04175453
  Solvation  Ediel_sol  =         0.00000000
  ---------------------------------------------------
  free energy    TOTEN  =       -24.15795144 eV

  energy without entropy =      -24.15795144  energy(sigma->0) =      -24.15795144


--------------------------------------------------------------------------------------------------------




--------------------------------------- Iteration      1(   8)  ---------------------------------------


    POTLOK:  cpu time    0.1498: real time    0.1498
    SETDIJ:  cpu time    0.0022: real time    0.0022
    EDDIAG:  cpu time    0.0363: real time    0.0363
  RMM-DIIS:  cpu time    0.1596: real time    0.1596
    ORTHCH:  cpu time    0.0017: real time    0.0017
       DOS:  cpu time    0.0002: real time    0.0002
    CHARGE:  cpu time    0.0193: real time    0.0193
    MIXING:  cpu time    0.0051: real time    0.0051
    --------------------------------------------
      LOOP:  cpu time    0.3741: real time    0.3742

 eigenvalue-minimisations  :    64
 total energy-change (2. order) : 0.1447625E+00  (-0.1622272E-01)
 number of electron       8.0000001 magnetization 
 augmentation part        0.1843168 magnetization 

 Broyden mixing:
  rms(total) = 0.22770E-01    rms(broyden)= 0.22748E-01
  rms(prec ) = 0.52250E-01
  weight for this iteration     100.00

 eigenvalues of (default mixing * dielectric matrix)
  average eigenvalue GAMMA=   1.5429
  2.2483  0.9827  1.3978

 Free energy of the ion-electron system (eV)
  ---------------------------------------------------
  alpha Z        PSCENC =         0.23580218
  Ewald energy   TEWEN  =       127.88001520
  -Hartree energ DENC   =      -280.17577550
  -exchange      EXHF   =         0.00000000
  -V(xc)+E(xc)   XCENC  =        24.51050598
  PAW double counting   =       462.70800966     -463.48810002
  entropy T*S    EENTRO =        -0.00000000
  eigenvalues    EBANDS =       -92.72540095
  atomic energy  EATOM  =       197.04175453
  Solvation  Ediel_sol  =         0.00000000
  ---------------------------------------------------
  free energy    TOTEN  =       -24.01318892 eV

  energy without entropy =      -24.01318892  energy(sigma->0) =      -24.01318892


--------------------------------------------------------------------------------------------------------




--------------------------------------- Iteration      1(   9)  ---------------------------------------


    POTLOK:  cpu time    0.1505: real time    0.1506
    SETDIJ:  cpu time    0.0019: real time    0.0019
    EDDIAG:  cpu time    0.0360: real time    0.0360
  RMM-DIIS:  cpu time    0.1603: real time    0.1604
    ORTHCH:  cpu time    0.0017: real time    0.0017
       DOS:  cpu time    0.0002: real time    0.0002
    CHARGE:  cpu time    0.0194: real time    0.0194
    MIXING:  cpu time    0.0051: real time    0.0051
    --------------------------------------------
      LOOP:  cpu time    0.3752: real time    0.3752

 eigenvalue-minimisations  :    64
 total energy-change (2. order) : 0.5584081E-02  (-0.1084989E-02)
 number of electron       8.0000001 magnetization 
 augmentation part        0.1837650 magnetization 

 Broyden mixing:
  rms(total) = 0.19357E-01    rms(broyden)= 0.19353E-01
  rms(prec ) = 0.39992E-01
  weight for this iteration     100.00

 eigenvalues of (default mixing * dielectric matrix)
  average eigenvalue GAMMA=   2.0895
  3.0522  2.9375  1.0024  1.3660

 Free energy of the ion-electron system (eV)
  ---------------------------------------------------
  alpha Z        PSCENC =         0.23580218
  Ewald energy   TEWEN  =       127.88001520
  -Hartree energ DENC   =      -281.41313673
  -exchange      EXHF   =         0.00000000
  -V(xc)+E(xc)   XCENC  =        24.57815700
  PAW double counting   =       465.55153222     -466.33436612
  entropy T*S    EENTRO =        -0.00000000
  eigenvalues    EBANDS =       -91.54736312
  atomic energy  EATOM  =       197.04175453
  Solvation  Ediel_sol  =         0.00000000
  ---------------------------------------------------
  free energy    TOTEN  =       -24.00760483 eV

  energy without entropy =      -24.00760483  energy(sigma->0) =      -24.00760483


--------------------------------------------------------------------------------------------------------




--------------------------------------- Iteration      1(  10)  ---------------------------------------


    POTLOK:  cpu time    0.1447: real time    0.1447
    SETDIJ:  cpu time    0.0021: real time    0.0021
    EDDIAG:  cpu time    0.0354: real time    0.0354
  RMM-DIIS:  cpu time    0.1615: real time    0.1615
    ORTHCH:  cpu time    0.0018: real time    0.0018
       DOS:  cpu time    0.0002: real time    0.0002
    CHARGE:  cpu time    0.0195: real time    0.0195
    MIXING:  cpu time    0.0055: real time    0.0066
    --------------------------------------------
      LOOP:  cpu time    0.3706: real time    0.3717

 eigenvalue-minimisations  :    64
 total energy-change (2. order) : 0.6351850E-02  (-0.2474076E-02)
 number of electron       8.0000001 magnetization 
 augmentation part        0.1827248 magnetization 

 Broyden mixing:
  rms(total) = 0.27548E-01    rms(broyden)= 0.27546E-01
  rms(prec ) = 0.35205E-01
  weight for this iteration     100.00

 eigenvalues of (default mixing * dielectric matrix)
  average eigenvalue GAMMA=   1.7855
  3.0765  2.4166  1.2262  1.2262  0.9821

 Free energy of the ion-electron system (eV)
  ---------------------------------------------------
  alpha Z        PSCENC =         0.23580218
  Ewald energy   TEWEN  =       127.88001520
  -Hartree energ DENC   =      -283.60214031
  -exchange      EXHF   =         0.00000000
  -V(xc)+E(xc)   XCENC  =        24.64882375
  PAW double counting   =       450.13064557     -450.91698752
  entropy T*S    EENTRO =        -0.00000000
  eigenvalues    EBANDS =       -89.41916639
  atomic energy  EATOM  =       197.04175453
  Solvation  Ediel_sol  =         0.00000000
  ---------------------------------------------------
  free energy    TOTEN  =       -24.00125298 eV

  energy without entropy =      -24.00125298  energy(sigma->0) =      -24.00125298


--------------------------------------------------------------------------------------------------------




--------------------------------------- Iteration      1(  11)  ---------------------------------------


    POTLOK:  cpu time    0.1427: real time    0.1427
    SETDIJ:  cpu time    0.0019: real time    0.0019
    EDDIAG:  cpu time    0.0361: real time    0.0361
  RMM-DIIS:  cpu time    0.1516: real time    0.1516
    ORTHCH:  cpu time    0.0022: real time    0.0022
       DOS:  cpu time    0.0002: real time    0.0002
    CHARGE:  cpu time    0.0209: real time    0.0209
    MIXING:  cpu time    0.0054: real time    0.0054
    --------------------------------------------
      LOOP:  cpu time    0.3611: real time    0.3611

 eigenvalue-minimisations  :    64
 total energy-change (2. order) :-0.7465802E-03  (-0.8457404E-03)
 number of electron       8.0000001 magnetization 
 augmentation part        0.1830997 magnetization 

 Broyden mixing:
  rms(total) = 0.86109E-02    rms(broyden)= 0.86077E-02
  rms(prec ) = 0.14361E-01
  weight for this iteration     100.00

 eigenvalues of (default mixing * dielectric matrix)
  average eigenvalue GAMMA=   2.2860
  4.8932  3.0956  2.4272  1.2691  1.0154  1.0154

 Free energy of the ion-electron system (eV)
  ---------------------------------------------------
  alpha Z        PSCENC =         0.23580218
  Ewald energy   TEWEN  =       127.88001520
  -Hartree energ DENC   =      -283.49034417
  -exchange      EXHF   =         0.00000000
  -V(xc)+E(xc)   XCENC  =        24.66275911
  PAW double counting   =       459.03804502     -459.81678377
  entropy T*S    EENTRO =        -0.00000000
  eigenvalues    EBANDS =       -89.55324768
  atomic energy  EATOM  =       197.04175453
  Solvation  Ediel_sol  =         0.00000000
  ---------------------------------------------------
  free energy    TOTEN  =       -24.00199956 eV

  energy without entropy =      -24.00199956  energy(sigma->0) =      -24.00199956


--------------------------------------------------------------------------------------------------------




--------------------------------------- Iteration      1(  12)  ---------------------------------------


    POTLOK:  cpu time    0.1348: real time    0.1349
    SETDIJ:  cpu time    0.0021: real time    0.0021
    EDDIAG:  cpu time    0.0358: real time    0.0358
  RMM-DIIS:  cpu time    0.1531: real time    0.1532
    ORTHCH:  cpu time    0.0018: real time    0.0018
       DOS:  cpu time    0.0002: real time    0.0002
    CHARGE:  cpu time    0.0189: real time    0.0189
    MIXING:  cpu time    0.0056: real time    0.0056
    --------------------------------------------
      LOOP:  cpu time    0.3524: real time    0.3525

 eigenvalue-minimisations  :    64
 total energy-change (2. order) :-0.9481136E-02  (-0.3385673E-03)
 number of electron       8.0000001 magnetization 
 augmentation part        0.1833101 magnetization 

 Broyden mixing:
  rms(total) = 0.12335E-01    rms(broyden)= 0.12334E-01
  rms(prec ) = 0.16149E-01
  weight for this iteration     100.00

 eigenvalues of (default mixing * dielectric matrix)
  average eigenvalue GAMMA=   2.0206
  4.8404  2.9503  2.4273  1.2213  1.0100  1.0100  0.6847

 Free energy of the ion-electron system (eV)
  ---------------------------------------------------
  alpha Z        PSCENC =         0.23580218
  Ewald energy   TEWEN  =       127.88001520
  -Hartree energ DENC   =      -283.69848341
  -exchange      EXHF   =         0.00000000
  -V(xc)+E(xc)   XCENC  =        24.65445436
  PAW double counting   =       455.97971086     -456.75748231
  entropy T*S    EENTRO =        -0.00000000
  eigenvalues    EBANDS =       -89.34725212
  atomic energy  EATOM  =       197.04175453
  Solvation  Ediel_sol  =         0.00000000
  ---------------------------------------------------
  free energy    TOTEN  =       -24.01148070 eV

  energy without entropy =      -24.01148070  energy(sigma->0) =      -24.01148070


--------------------------------------------------------------------------------------------------------




--------------------------------------- Iteration      1(  13)  ---------------------------------------


    POTLOK:  cpu time    0.1367: real time    0.1367
    SETDIJ:  cpu time    0.0021: real time    0.0021
    EDDIAG:  cpu time    0.0353: real time    0.0353
  RMM-DIIS:  cpu time    0.1522: real time    0.1523
    ORTHCH:  cpu time    0.0018: real time    0.0018
       DOS:  cpu time    0.0002: real time    0.0002
    CHARGE:  cpu time    0.0188: real time    0.0188
    MIXING:  cpu time    0.0057: real time    0.0057
    --------------------------------------------
      LOOP:  cpu time    0.3528: real time    0.3529

 eigenvalue-minimisations  :    64
 total energy-change (2. order) :-0.5052670E-03  (-0.9720737E-04)
 number of electron       8.0000001 magnetization 
 augmentation part        0.1830727 magnetization 

 Broyden mixing:
  rms(total) = 0.49257E-02    rms(broyden)= 0.49255E-02
  rms(prec ) = 0.67317E-02
  weight for this iteration     100.00

 eigenvalues of (default mixing * dielectric matrix)
  average eigenvalue GAMMA=   2.4554
  6.2316  4.2033  2.5190  2.3965  1.2096  1.2096  0.9970  0.8763

 Free energy of the ion-electron system (eV)
  ---------------------------------------------------
  alpha Z        PSCENC =         0.23580218
  Ewald energy   TEWEN  =       127.88001520
  -Hartree energ DENC   =      -283.87985871
  -exchange      EXHF   =         0.00000000
  -V(xc)+E(xc)   XCENC  =        24.65956668
  PAW double counting   =       455.79958707     -456.57970123
  entropy T*S    EENTRO =        -0.00000000
  eigenvalues    EBANDS =       -89.16915169
  atomic energy  EATOM  =       197.04175453
  Solvation  Ediel_sol  =         0.00000000
  ---------------------------------------------------
  free energy    TOTEN  =       -24.01198597 eV

  energy without entropy =      -24.01198597  energy(sigma->0) =      -24.01198597


--------------------------------------------------------------------------------------------------------




--------------------------------------- Iteration      1(  14)  ---------------------------------------


    POTLOK:  cpu time    0.1331: real time    0.1331
    SETDIJ:  cpu time    0.0020: real time    0.0020
    EDDIAG:  cpu time    0.0358: real time    0.0358
  RMM-DIIS:  cpu time    0.1537: real time    0.1537
    ORTHCH:  cpu time    0.0018: real time    0.0018
       DOS:  cpu time    0.0002: real time    0.0002
    CHARGE:  cpu time    0.0188: real time    0.0188
    MIXING:  cpu time    0.0059: real time    0.0059
    --------------------------------------------
      LOOP:  cpu time    0.3514: real time    0.3514

 eigenvalue-minimisations  :    64
 total energy-change (2. order) :-0.2884047E-02  (-0.1539548E-03)
 number of electron       8.0000001 magnetization 
 augmentation part        0.1829219 magnetization 

 Broyden mixing:
  rms(total) = 0.36766E-02    rms(broyden)= 0.36749E-02
  rms(prec ) = 0.47537E-02
  weight for this iteration     100.00

 eigenvalues of (default mixing * dielectric matrix)
  average eigenvalue GAMMA=   2.3465
  6.5227  4.1067  2.5666  2.3878  1.2072  1.2072  0.9288  0.9773  1.2143

 Free energy of the ion-electron system (eV)
  ---------------------------------------------------
  alpha Z        PSCENC =         0.23580218
  Ewald energy   TEWEN  =       127.88001520
  -Hartree energ DENC   =      -283.89813377
  -exchange      EXHF   =         0.00000000
  -V(xc)+E(xc)   XCENC  =        24.65013067
  PAW double counting   =       455.02873784     -455.81042977
  entropy T*S    EENTRO =        -0.00000000
  eigenvalues    EBANDS =       -89.14274689
  atomic energy  EATOM  =       197.04175453
  Solvation  Ediel_sol  =         0.00000000
  ---------------------------------------------------
  free energy    TOTEN  =       -24.01487001 eV

  energy without entropy =      -24.01487001  energy(sigma->0) =      -24.01487001


--------------------------------------------------------------------------------------------------------




--------------------------------------- Iteration      1(  15)  ---------------------------------------


    POTLOK:  cpu time    0.1338: real time    0.1338
    SETDIJ:  cpu time    0.0021: real time    0.0021
    EDDIAG:  cpu time    0.0349: real time    0.0349
  RMM-DIIS:  cpu time    0.1538: real time    0.1538
    ORTHCH:  cpu time    0.0018: real time    0.0018
       DOS:  cpu time    0.0002: real time    0.0002
    CHARGE:  cpu time    0.0192: real time    0.0192
    MIXING:  cpu time    0.0060: real time    0.0060
    --------------------------------------------
      LOOP:  cpu time    0.3518: real time    0.3518

 eigenvalue-minimisations  :    64
 total energy-change (2. order) :-0.2134336E-03  (-0.5191838E-05)
 number of electron       8.0000001 magnetization 
 augmentation part        0.1829004 magnetization 

 Broyden mixing:
  rms(total) = 0.17863E-02    rms(broyden)= 0.17861E-02
  rms(prec ) = 0.23437E-02
  weight for this iteration     100.00

 eigenvalues of (default mixing * dielectric matrix)
  average eigenvalue GAMMA=   2.5616
  7.6319  4.9071  2.9361  2.5991  2.1218  1.2625  1.2625  1.0096  0.9863  0.8989

 Free energy of the ion-electron system (eV)
  ---------------------------------------------------
  alpha Z        PSCENC =         0.23580218
  Ewald energy   TEWEN  =       127.88001520
  -Hartree energ DENC   =      -283.87450206
  -exchange      EXHF   =         0.00000000
  -V(xc)+E(xc)   XCENC  =        24.64986578
  PAW double counting   =       455.23111529     -456.01203800
  entropy T*S    EENTRO =        -0.00000000
  eigenvalues    EBANDS =       -89.16709636
  atomic energy  EATOM  =       197.04175453
  Solvation  Ediel_sol  =         0.00000000
  ---------------------------------------------------
  free energy    TOTEN  =       -24.01508345 eV

  energy without entropy =      -24.01508345  energy(sigma->0) =      -24.01508345


--------------------------------------------------------------------------------------------------------




--------------------------------------- Iteration      1(  16)  ---------------------------------------


    POTLOK:  cpu time    0.1339: real time    0.1339
    SETDIJ:  cpu time    0.0020: real time    0.0020
    EDDIAG:  cpu time    0.0356: real time    0.0356
  RMM-DIIS:  cpu time    0.1522: real time    0.1522
    ORTHCH:  cpu time    0.0017: real time    0.0017
       DOS:  cpu time    0.0002: real time    0.0002
    CHARGE:  cpu time    0.0189: real time    0.0189
    MIXING:  cpu time    0.0063: real time    0.0063
    --------------------------------------------
      LOOP:  cpu time    0.3506: real time    0.3506

 eigenvalue-minimisations  :    64
 total energy-change (2. order) :-0.2165638E-03  (-0.1705563E-04)
 number of electron       8.0000001 magnetization 
 augmentation part        0.1829723 magnetization 

 Broyden mixing:
  rms(total) = 0.12176E-02    rms(broyden)= 0.12170E-02
  rms(prec ) = 0.16111E-02
  weight for this iteration     100.00

 eigenvalues of (default mixing * dielectric matrix)
  average eigenvalue GAMMA=   2.4904
  7.7999  4.8564  3.4509  2.4147  2.2738  1.2893  1.2893  1.0818  1.0818  0.9284
  0.9284

 Free energy of the ion-electron system (eV)
  ---------------------------------------------------
  alpha Z        PSCENC =         0.23580218
  Ewald energy   TEWEN  =       127.88001520
  -Hartree energ DENC   =      -283.83165911
  -exchange      EXHF   =         0.00000000
  -V(xc)+E(xc)   XCENC  =        24.64870118
  PAW double counting   =       455.28983856     -456.07006214
  entropy T*S    EENTRO =        -0.00000000
  eigenvalues    EBANDS =       -89.20969041
  atomic energy  EATOM  =       197.04175453
  Solvation  Ediel_sol  =         0.00000000
  ---------------------------------------------------
  free energy    TOTEN  =       -24.01530001 eV

  energy without entropy =      -24.01530001  energy(sigma->0) =      -24.01530001


--------------------------------------------------------------------------------------------------------




--------------------------------------- Iteration      1(  17)  ---------------------------------------


    POTLOK:  cpu time    0.1346: real time    0.1346
    SETDIJ:  cpu time    0.0022: real time    0.0022
    EDDIAG:  cpu time    0.0353: real time    0.0353
  RMM-DIIS:  cpu time    0.1509: real time    0.1509
    ORTHCH:  cpu time    0.0017: real time    0.0017
       DOS:  cpu time    0.0002: real time    0.0002
    CHARGE:  cpu time    0.0190: real time    0.0190
    MIXING:  cpu time    0.0064: real time    0.0064
    --------------------------------------------
      LOOP:  cpu time    0.3502: real time    0.3502

 eigenvalue-minimisations  :    64
 total energy-change (2. order) :-0.2536341E-04  (-0.3705435E-05)
 number of electron       8.0000001 magnetization 
 augmentation part        0.1829340 magnetization 

 Broyden mixing:
  rms(total) = 0.24472E-03    rms(broyden)= 0.24465E-03
  rms(prec ) = 0.37860E-03
  weight for this iteration     100.00

 eigenvalues of (default mixing * dielectric matrix)
  average eigenvalue GAMMA=   2.5984
  8.4859  5.2786  3.9518  2.6101  2.4724  1.8637  1.3118  1.3118  1.0712  1.0004
  0.9172  0.9063

 Free energy of the ion-electron system (eV)
  ---------------------------------------------------
  alpha Z        PSCENC =         0.23580218
  Ewald energy   TEWEN  =       127.88001520
  -Hartree energ DENC   =      -283.88098719
  -exchange      EXHF   =         0.00000000
  -V(xc)+E(xc)   XCENC  =        24.65093360
  PAW double counting   =       455.27948002     -456.06015155
  entropy T*S    EENTRO =        -0.00000000
  eigenvalues    EBANDS =       -89.16217218
  atomic energy  EATOM  =       197.04175453
  Solvation  Ediel_sol  =         0.00000000
  ---------------------------------------------------
  free energy    TOTEN  =       -24.01532537 eV

  energy without entropy =      -24.01532537  energy(sigma->0) =      -24.01532537


--------------------------------------------------------------------------------------------------------




--------------------------------------- Iteration      1(  18)  ---------------------------------------


    POTLOK:  cpu time    0.1378: real time    0.1379
    SETDIJ:  cpu time    0.0020: real time    0.0020
    EDDIAG:  cpu time    0.0352: real time    0.0352
  RMM-DIIS:  cpu time    0.1219: real time    0.1220
    ORTHCH:  cpu time    0.0017: real time    0.0017
       DOS:  cpu time    0.0002: real time    0.0002
    CHARGE:  cpu time    0.0192: real time    0.0192
    MIXING:  cpu time    0.0066: real time    0.0066
    --------------------------------------------
      LOOP:  cpu time    0.3247: real time    0.3248

 eigenvalue-minimisations  :    48
 total energy-change (2. order) :-0.1405990E-04  (-0.1074748E-06)
 number of electron       8.0000001 magnetization 
 augmentation part        0.1829344 magnetization 

 Broyden mixing:
  rms(total) = 0.81709E-04    rms(broyden)= 0.81688E-04
  rms(prec ) = 0.12675E-03
  weight for this iteration     100.00

 eigenvalues of (default mixing * dielectric matrix)
  average eigenvalue GAMMA=   2.6042
  8.5574  5.4814  3.7255  3.4038  2.4838  2.2716  1.3020  1.3020  1.2926  1.1641
  0.9000  0.9854  0.9854

 Free energy of the ion-electron system (eV)
  ---------------------------------------------------
  alpha Z        PSCENC =         0.23580218
  Ewald energy   TEWEN  =       127.88001520
  -Hartree energ DENC   =      -283.86812716
  -exchange      EXHF   =         0.00000000
  -V(xc)+E(xc)   XCENC  =        24.65011533
  PAW double counting   =       455.20511683     -455.98570833
  entropy T*S    EENTRO =        -0.00000000
  eigenvalues    EBANDS =       -89.17430801
  atomic energy  EATOM  =       197.04175453
  Solvation  Ediel_sol  =         0.00000000
  ---------------------------------------------------
  free energy    TOTEN  =       -24.01533943 eV

  energy without entropy =      -24.01533943  energy(sigma->0) =      -24.01533943


--------------------------------------------------------------------------------------------------------




--------------------------------------- Iteration      1(  19)  ---------------------------------------


    POTLOK:  cpu time    0.1389: real time    0.1389
    SETDIJ:  cpu time    0.0022: real time    0.0022
    EDDIAG:  cpu time    0.0352: real time    0.0352
  RMM-DIIS:  cpu time    0.1213: real time    0.1213
    ORTHCH:  cpu time    0.0017: real time    0.0017
       DOS:  cpu time    0.0002: real time    0.0002
    CHARGE:  cpu time    0.0190: real time    0.0190
    MIXING:  cpu time    0.0068: real time    0.0068
    --------------------------------------------
      LOOP:  cpu time    0.3255: real time    0.3255

 eigenvalue-minimisations  :    48
 total energy-change (2. order) :-0.3212654E-05  (-0.4006788E-07)
 number of electron       8.0000001 magnetization 
 augmentation part        0.1829368 magnetization 

 Broyden mixing:
  rms(total) = 0.40908E-04    rms(broyden)= 0.40896E-04
  rms(prec ) = 0.52843E-04
  weight for this iteration     100.00

 eigenvalues of (default mixing * dielectric matrix)
  average eigenvalue GAMMA=   2.5704
  8.5909  5.5802  4.0057  3.3633  2.4880  2.4880  2.0788  1.2903  1.2903  1.0456
  0.9765  0.9765  0.9059  0.9059

 Free energy of the ion-electron system (eV)
  ---------------------------------------------------
  alpha Z        PSCENC =         0.23580218
  Ewald energy   TEWEN  =       127.88001520
  -Hartree energ DENC   =      -283.86339100
  -exchange      EXHF   =         0.00000000
  -V(xc)+E(xc)   XCENC  =        24.64977121
  PAW double counting   =       455.18330472     -455.96387694
  entropy T*S    EENTRO =        -0.00000000
  eigenvalues    EBANDS =       -89.17872256
  atomic energy  EATOM  =       197.04175453
  Solvation  Ediel_sol  =         0.00000000
  ---------------------------------------------------
  free energy    TOTEN  =       -24.01534265 eV

  energy without entropy =      -24.01534265  energy(sigma->0) =      -24.01534265


--------------------------------------------------------------------------------------------------------




--------------------------------------- Iteration      1(  20)  ---------------------------------------


    POTLOK:  cpu time    0.1420: real time    0.1420
    SETDIJ:  cpu time    0.0021: real time    0.0021
    EDDIAG:  cpu time    0.0355: real time    0.0355
  RMM-DIIS:  cpu time    0.1175: real time    0.1176
    ORTHCH:  cpu time    0.0017: real time    0.0017
       DOS:  cpu time    0.0002: real time    0.0002
    CHARGE:  cpu time    0.0194: real time    0.0194
    MIXING:  cpu time    0.0070: real time    0.0070
    --------------------------------------------
      LOOP:  cpu time    0.3256: real time    0.3256

 eigenvalue-minimisations  :    44
 total energy-change (2. order) :-0.1439129E-05  (-0.5915921E-08)
 number of electron       8.0000001 magnetization 
 augmentation part        0.1829375 magnetization 

 Broyden mixing:
  rms(total) = 0.20959E-04    rms(broyden)= 0.20957E-04
  rms(prec ) = 0.25830E-04
  weight for this iteration     100.00

 eigenvalues of (default mixing * dielectric matrix)
  average eigenvalue GAMMA=   2.5112
  8.6194  5.5887  4.2330  3.4858  2.5611  2.4461  2.0795  1.2840  1.2840  1.0861
  1.0861  1.0388  1.0388  0.9032  0.9333

 Free energy of the ion-electron system (eV)
  ---------------------------------------------------
  alpha Z        PSCENC =         0.23580218
  Ewald energy   TEWEN  =       127.88001520
  -Hartree energ DENC   =      -283.86414348
  -exchange      EXHF   =         0.00000000
  -V(xc)+E(xc)   XCENC  =        24.64983685
  PAW double counting   =       455.19212219     -455.97268884
  entropy T*S    EENTRO =        -0.00000000
  eigenvalues    EBANDS =       -89.17804272
  atomic energy  EATOM  =       197.04175453
  Solvation  Ediel_sol  =         0.00000000
  ---------------------------------------------------
  free energy    TOTEN  =       -24.01534409 eV

  energy without entropy =      -24.01534409  energy(sigma->0) =      -24.01534409


--------------------------------------------------------------------------------------------------------




--------------------------------------- Iteration      1(  21)  ---------------------------------------


    POTLOK:  cpu time    0.1443: real time    0.1444
    SETDIJ:  cpu time    0.0019: real time    0.0019
    EDDIAG:  cpu time    0.0353: real time    0.0353
  RMM-DIIS:  cpu time    0.1045: real time    0.1045
    ORTHCH:  cpu time    0.0017: real time    0.0017
       DOS:  cpu time    0.0002: real time    0.0002
    --------------------------------------------
      LOOP:  cpu time    0.2878: real time    0.2879

 eigenvalue-minimisations  :    32
 total energy-change (2. order) :-0.1775151E-06  ( 0.0000000E+00)
 number of electron       8.0000001 magnetization 
 augmentation part        0.1829375 magnetization 

 Free energy of the ion-electron system (eV)
  ---------------------------------------------------
  alpha Z        PSCENC =         0.23580218
  Ewald energy   TEWEN  =       127.88001520
  -Hartree energ DENC   =      -283.86367956
  -exchange      EXHF   =         0.00000000
  -V(xc)+E(xc)   XCENC  =        24.64981923
  PAW double counting   =       455.19398010     -455.97453955
  entropy T*S    EENTRO =        -0.00000000
  eigenvalues    EBANDS =       -89.17849639
  atomic energy  EATOM  =       197.04175453
  Solvation  Ediel_sol  =         0.00000000
  ---------------------------------------------------
  free energy    TOTEN  =       -24.01534426 eV

  energy without entropy =      -24.01534426  energy(sigma->0) =      -24.01534426


--------------------------------------------------------------------------------------------------------




 average (electrostatic) potential at core
  the test charge radii are     0.5201  0.6991
  (the norm of the test charge is              1.0000)
       1 -41.4688       2 -41.3828       3 -41.5260       4 -41.4012       5 -58.0169
 
 
 
 E-fermi :  -8.2062     XC(G=0):  -0.6871     alpha+bet : -0.2051


 k-point     1 :       0.2500    0.2500    0.2500
  band No.  band energies     occupation 
      1     -16.8226      2.00000
      2      -9.3817      2.00000
      3      -9.2471      2.00000
      4      -9.1381      2.00000
      5      -0.3236      0.00000
      6       0.5370      0.00000
      7       0.6383      0.00000
      8       0.6718      0.00000

 k-point     2 :      -0.2500    0.2500    0.2500
  band No.  band energies     occupation 
      1     -16.8226      2.00000
      2      -9.3816      2.00000
      3      -9.2469      2.00000
      4      -9.1379      2.00000
      5      -0.3312      0.00000
      6       0.5488      0.00000
      7       0.6588      0.00000
      8       0.6900      0.00000

 k-point     3 :       0.2500   -0.2500    0.2500
  band No.  band energies     occupation 
      1     -16.8226      2.00000
      2      -9.3816      2.00000
      3      -9.2469      2.00000
      4      -9.1381      2.00000
      5      -0.3297      0.00000
      6       0.5408      0.00000
      7       0.6513      0.00000
      8       0.6969      0.00000

 k-point     4 :      -0.2500   -0.2500    0.2500
  band No.  band energies     occupation 
      1     -16.8226      2.00000
      2      -9.3816      2.00000
      3      -9.2469      2.00000
      4      -9.1381      2.00000
      5      -0.3320      0.00000
      6       0.5504      0.00000
      7       0.6617      0.00000
      8       0.6964      0.00000


--------------------------------------------------------------------------------------------------------


 soft charge-density along one line, spin component           1
         0         1         2         3         4         5         6         7         8         9
 total charge-density along one line
 
 pseudopotential strength for first ion, spin component:           1
 -2.341  -4.033  -0.001  -0.001   0.001
 -4.033  -6.864  -0.003  -0.004   0.002
 -0.001  -0.003  -0.338   0.002  -0.001
 -0.001  -0.004   0.002  -0.336  -0.001
  0.001   0.002  -0.001  -0.001  -0.338
 total augmentation occupancy for first ion, spin component:           1
  3.528  -0.636   0.224   0.329  -0.150
 -0.636   0.129  -0.042  -0.061   0.027
  0.224  -0.042   0.021   0.017  -0.008
  0.329  -0.061   0.017   0.034  -0.012
 -0.150   0.027  -0.008  -0.012   0.014


------------------------ aborting loop because EDIFF is reached ----------------------------------------


    CHARGE:  cpu time    0.0191: real time    0.0191
    FORLOC:  cpu time    0.0138: real time    0.0138
    FORNL :  cpu time    0.0205: real time    0.0205
    STRESS:  cpu time    0.1580: real time    0.1588
    FORCOR:  cpu time    0.1426: real time    0.1426
    FORHAR:  cpu time    0.0440: real time    0.0440
    MIXING:  cpu time    0.0068: real time    0.0068
    OFIELD:  cpu time    0.0000: real time    0.0000

  FORCE on cell =-STRESS in cart. coord.  units (eV):
  Direction    XX          YY          ZZ          XY          YZ          ZX
  --------------------------------------------------------------------------------------
  Alpha Z     0.23580     0.23580     0.23580
  Ewald      41.91897    43.34913    42.61190    -0.19524    -1.73659    -2.83341
  Hartree    93.67793    95.40271    94.78378    -0.35924    -0.77260    -1.01675
  E(xc)     -27.10501   -27.11753   -27.11106    -0.00237    -0.00976    -0.01222
  Local    -194.47809  -197.53599  -196.33573     0.66576     2.32236     3.38560
  n-local   -15.65713   -15.73063   -15.67910    -0.02487    -0.02154     0.00746
  augment     0.12056     0.11858     0.12070    -0.00133     0.00092     0.00335
  Kinetic   100.21284   100.89543   100.53022     0.13100     0.49453     0.57376
  Fock        0.00000     0.00000     0.00000     0.00000     0.00000     0.00000
  -------------------------------------------------------------------------------------
  Total      -1.07414    -0.38250    -0.84349     0.21371     0.27733     0.10780
  in kB      -1.67515    -0.59652    -1.31544     0.33329     0.43250     0.16811
  external pressure =       -1.20 kB  Pullay stress =        0.00 kB

  kinetic pressure (ideal gas correction) =      0.00 kB
  total pressure  =     -1.20 kB
  Total+kin.    -1.675      -0.597      -1.315       0.333       0.433       0.168

 VOLUME and BASIS-vectors are now :
 -----------------------------------------------------------------------------
  energy-cutoff  :      400.00
  volume of cell :     1027.35
      direct lattice vectors                 reciprocal lattice vectors
    10.198875491  0.000000000  0.000000000     0.098050025  0.001503359  0.002628400
    -0.153304240  9.998599610  0.000000000     0.000000000  0.100014006  0.002004988
    -0.266969158 -0.201965308 10.074556260     0.000000000  0.000000000  0.099259955

  length of vectors
    10.198875491  9.999774815 10.080116386     0.098096769  0.100034101  0.099259955


 FORCES acting on ions
    electron-ion (+dipol)            ewald-force                    non-local-force                 convergence-correction
 -----------------------------------------------------------------------------------------------
   -.183E+02 0.278E+02 0.406E+02   0.200E+02 -.307E+02 -.447E+02   -.193E+01 0.285E+01 0.420E+01   0.176E-04 -.170E-04 -.317E-04
   0.515E+02 -.605E+01 0.322E+01   -.561E+02 0.658E+01 -.359E+01   0.520E+01 -.621E+00 0.303E+00   -.511E-04 0.596E-05 -.562E-05
   -.235E+02 -.473E+02 0.139E+01   0.260E+02 0.524E+02 -.142E+01   -.248E+01 -.496E+01 0.186E+00   0.231E-04 0.309E-04 -.114E-06
   -.111E+02 0.247E+02 -.445E+02   0.121E+02 -.270E+02 0.486E+02   -.111E+01 0.252E+01 -.452E+01   0.151E-04 -.154E-04 0.365E-04
   0.180E+01 0.112E+01 -.930E+00   -.207E+01 -.130E+01 0.108E+01   -.543E-01 -.725E-01 0.299E-01   0.212E-04 0.159E-04 -.909E-05
 -----------------------------------------------------------------------------------------------
   0.375E+00 0.283E+00 -.199E+00   -.178E-14 -.355E-14 0.711E-14   -.376E+00 -.283E+00 0.199E+00   0.260E-04 0.204E-04 -.100E-04
 
 
 POSITION                                       TOTAL-FORCE (eV/Angst)
 -----------------------------------------------------------------------------------
      5.32571      4.00100      3.63268        -0.208013     -0.035995      0.118876
      3.83544      4.71436      4.41521         0.557733     -0.095065     -0.070369
      5.42768      5.56236      4.45476         0.005649      0.129789      0.158410
      5.17727      4.05643      5.43413        -0.031169      0.260961     -0.388431
      4.94027      4.58362      4.48465        -0.324521     -0.260020      0.181550
 -----------------------------------------------------------------------------------
    total drift:                               -0.000320     -0.000331      0.000037


--------------------------------------------------------------------------------------------------------



  FREE ENERGIE OF THE ION-ELECTRON SYSTEM (eV)
  ---------------------------------------------------
  free  energy   TOTEN  =       -24.01534426 eV

  energy  without entropy=      -24.01534426  energy(sigma->0) =      -24.01534426
 


--------------------------------------------------------------------------------------------------------


    POTLOK:  cpu time    0.1442: real time    0.1443


--------------------------------------------------------------------------------------------------------


 stress matrix after NEB project (eV)
     -1.07414      0.21371      0.10780
      0.21371     -0.38250      0.27733
      0.10780      0.27733     -0.84349
  FORCES: max atom, RMS     0.570136    0.412688
  FORCE total and by dimension    0.922799    0.557733
  Stress total and by dimension    1.509950    1.074136
           RANDOM_SEED =         581397971                0                0
           RANDOM_SEED =         581397971               30                0
   IONSTEP:  cpu time    0.0036: real time    0.0077

  ENERGY OF THE ELECTRON-ION-THERMOSTAT SYSTEM (eV)
  ---------------------------------------------------
% ion-electron   TOTEN  =       -24.015344  see above
  kinetic energy EKIN   =         0.000202
  kin. lattice  EKIN_LAT=         0.000000  (temperature    0.39 K)
  nose potential ES     =         0.000000
  nose kinetic   EPS    =         0.000000
  ---------------------------------------------------
  total energy   ETOTAL =       -24.015142 eV

  maximum distance moved by ions :      0.13E-03

    WAVPRE:  cpu time    0.0431: real time    0.0431
    FEWALD:  cpu time    0.0004: real time    0.0004
    ORTHCH:  cpu time    0.0091: real time    0.0091
     LOOP+:  cpu time    7.4049: real time    7.4606


--------------------------------------- Iteration      2(   1)  ---------------------------------------


    POTLOK:  cpu time    0.1445: real time    0.1445
    SETDIJ:  cpu time    0.0020: real time    0.0020
     EDDAV:  cpu time    0.1740: real time    0.1741
       DOS:  cpu time    0.0003: real time    0.0003
    CHARGE:  cpu time    0.0186: real time    0.0186
    MIXING:  cpu time    0.0069: real time    0.0069
    --------------------------------------------
      LOOP:  cpu time    0.3464: real time    0.3465

 eigenvalue-minimisations  :    80
 total energy-change (2. order) :-0.1557652E-02  (-0.1719123E-03)
 number of electron       8.0000001 magnetization 
 augmentation part        0.1831573 magnetization 

 Broyden mixing:
  rms(total) = 0.20096E-02    rms(broyden)= 0.20083E-02
  rms(prec ) = 0.25660E-02
  weight for this iteration     100.00

 Free energy of the ion-electron system (eV)
  ---------------------------------------------------
  alpha Z        PSCENC =         0.23580218
  Ewald energy   TEWEN  =       128.02405010
  -Hartree energ DENC   =      -283.94945209
  -exchange      EXHF   =         0.00000000
  -V(xc)+E(xc)   XCENC  =        24.65416396
  PAW double counting   =       455.19946596     -455.98002396
  entropy T*S    EENTRO =        -0.00000000
  eigenvalues    EBANDS =       -89.24266241
  atomic energy  EATOM  =       197.04175453
  Solvation  Ediel_sol  =         0.00000000
  ---------------------------------------------------
  free energy    TOTEN  =       -24.01690174 eV

  energy without entropy =      -24.01690174  energy(sigma->0) =      -24.01690174


--------------------------------------------------------------------------------------------------------




--------------------------------------- Iteration      2(   2)  ---------------------------------------


    POTLOK:  cpu time    0.1498: real time    0.1498
    SETDIJ:  cpu time    0.0021: real time    0.0021
    EDDIAG:  cpu time    0.0360: real time    0.0360
  RMM-DIIS:  cpu time    0.1564: real time    0.1565
    ORTHCH:  cpu time    0.0017: real time    0.0017
       DOS:  cpu time    0.0002: real time    0.0002
    CHARGE:  cpu time    0.0190: real time    0.0190
    MIXING:  cpu time    0.0048: real time    0.0048
    --------------------------------------------
      LOOP:  cpu time    0.3701: real time    0.3701

 eigenvalue-minimisations  :    64
 total energy-change (2. order) : 0.7928632E-05  (-0.4613972E-05)
 number of electron       8.0000001 magnetization 
 augmentation part        0.1831330 magnetization 

 Broyden mixing:
  rms(total) = 0.10150E-02    rms(broyden)= 0.10147E-02
  rms(prec ) = 0.12239E-02
  weight for this iteration     100.00

 eigenvalues of (default mixing * dielectric matrix)
  average eigenvalue GAMMA=   1.7081
  1.7081

 Free energy of the ion-electron system (eV)
  ---------------------------------------------------
  alpha Z        PSCENC =         0.23580218
  Ewald energy   TEWEN  =       128.02405010
  -Hartree energ DENC   =      -283.97957452
  -exchange      EXHF   =         0.00000000
  -V(xc)+E(xc)   XCENC  =        24.65578352
  PAW double counting   =       455.59138055     -456.37227923
  entropy T*S    EENTRO =        -0.00000000
  eigenvalues    EBANDS =       -89.21381094
  atomic energy  EATOM  =       197.04175453
  Solvation  Ediel_sol  =         0.00000000
  ---------------------------------------------------
  free energy    TOTEN  =       -24.01689381 eV

  energy without entropy =      -24.01689381  energy(sigma->0) =      -24.01689381


--------------------------------------------------------------------------------------------------------




--------------------------------------- Iteration      2(   3)  ---------------------------------------


    POTLOK:  cpu time    0.1485: real time    0.1485
    SETDIJ:  cpu time    0.0021: real time    0.0021
    EDDIAG:  cpu time    0.0358: real time    0.0358
  RMM-DIIS:  cpu time    0.1565: real time    0.1565
    ORTHCH:  cpu time    0.0018: real time    0.0018
       DOS:  cpu time    0.0002: real time    0.0002
    CHARGE:  cpu time    0.0191: real time    0.0190
    MIXING:  cpu time    0.0049: real time    0.0049
    --------------------------------------------
      LOOP:  cpu time    0.3688: real time    0.3688

 eigenvalue-minimisations  :    64
 total energy-change (2. order) : 0.2641603E-06  (-0.1683097E-05)
 number of electron       8.0000001 magnetization 
 augmentation part        0.1831037 magnetization 

 Broyden mixing:
  rms(total) = 0.38980E-03    rms(broyden)= 0.38954E-03
  rms(prec ) = 0.46202E-03
  weight for this iteration     100.00

 eigenvalues of (default mixing * dielectric matrix)
  average eigenvalue GAMMA=   1.4705
  1.4705  1.4705

 Free energy of the ion-electron system (eV)
  ---------------------------------------------------
  alpha Z        PSCENC =         0.23580218
  Ewald energy   TEWEN  =       128.02405010
  -Hartree energ DENC   =      -283.99727569
  -exchange      EXHF   =         0.00000000
  -V(xc)+E(xc)   XCENC  =        24.65676362
  PAW double counting   =       455.89501152     -456.67613427
  entropy T*S    EENTRO =        -0.00000000
  eigenvalues    EBANDS =       -89.19686553
  atomic energy  EATOM  =       197.04175453
  Solvation  Ediel_sol  =         0.00000000
  ---------------------------------------------------
  free energy    TOTEN  =       -24.01689355 eV

  energy without entropy =      -24.01689355  energy(sigma->0) =      -24.01689355


--------------------------------------------------------------------------------------------------------




--------------------------------------- Iteration      2(   4)  ---------------------------------------


    POTLOK:  cpu time    0.1482: real time    0.1483
    SETDIJ:  cpu time    0.0020: real time    0.0020
    EDDIAG:  cpu time    0.0356: real time    0.0356
  RMM-DIIS:  cpu time    0.1234: real time    0.1235
    ORTHCH:  cpu time    0.0017: real time    0.0017
       DOS:  cpu time    0.0002: real time    0.0002
    --------------------------------------------
      LOOP:  cpu time    0.3112: real time    0.3113

 eigenvalue-minimisations  :    48
 total energy-change (2. order) : 0.1332969E-06  (-0.5403150E-07)
 number of electron       8.0000001 magnetization 
 augmentation part        0.1831037 magnetization 

 Free energy of the ion-electron system (eV)
  ---------------------------------------------------
  alpha Z        PSCENC =         0.23580218
  Ewald energy   TEWEN  =       128.02405010
  -Hartree energ DENC   =      -283.99189100
  -exchange      EXHF   =         0.00000000
  -V(xc)+E(xc)   XCENC  =        24.65654997
  PAW double counting   =       455.94375332     -456.72480541
  entropy T*S    EENTRO =        -0.00000000
  eigenvalues    EBANDS =       -89.20210710
  atomic energy  EATOM  =       197.04175453
  Solvation  Ediel_sol  =         0.00000000
  ---------------------------------------------------
  free energy    TOTEN  =       -24.01689341 eV

  energy without entropy =      -24.01689341  energy(sigma->0) =      -24.01689341


--------------------------------------------------------------------------------------------------------




 average (electrostatic) potential at core
  the test charge radii are     0.5201  0.6991
  (the norm of the test charge is              1.0000)
       1 -41.4704       2 -41.3918       3 -41.5224       4 -41.4087       5 -58.0126
 
 
 
 E-fermi :  -8.2120     XC(G=0):  -0.6983     alpha+bet : -0.2051


 k-point     1 :       0.2500    0.2500    0.2500
  band No.  band energies     occupation 
      1     -16.8271      2.00000
      2      -9.3816      2.00000
      3      -9.2496      2.00000
      4      -9.1430      2.00000
      5      -0.3259      0.00000
      6       0.5271      0.00000
      7       0.6322      0.00000
      8       0.6648      0.00000

 k-point     2 :      -0.2500    0.2500    0.2500
  band No.  band energies     occupation 
      1     -16.8271      2.00000
      2      -9.3815      2.00000
      3      -9.2494      2.00000
      4      -9.1428      2.00000
      5      -0.3335      0.00000
      6       0.5377      0.00000
      7       0.6539      0.00000
      8       0.6834      0.00000

 k-point     3 :       0.2500   -0.2500    0.2500
  band No.  band energies     occupation 
      1     -16.8270      2.00000
      2      -9.3815      2.00000
      3      -9.2494      2.00000
      4      -9.1430      2.00000
      5      -0.3321      0.00000
      6       0.5323      0.00000
      7       0.6451      0.00000
      8       0.6896      0.00000

 k-point     4 :      -0.2500   -0.2500    0.2500
  band No.  band energies     occupation 
      1     -16.8270      2.00000
      2      -9.3816      2.00000
      3      -9.2495      2.00000
      4      -9.1430      2.00000
      5      -0.3344      0.00000
      6       0.5411      0.00000
      7       0.6551      0.00000
      8       0.6897      0.00000


--------------------------------------------------------------------------------------------------------


 soft charge-density along one line, spin component           1
         0         1         2         3         4         5         6         7         8         9
 total charge-density along one line
 
 pseudopotential strength for first ion, spin component:           1
 -2.341  -4.033  -0.001  -0.001   0.001
 -4.033  -6.864  -0.003  -0.004   0.002
 -0.001  -0.003  -0.338   0.002  -0.001
 -0.001  -0.004   0.002  -0.336  -0.001
  0.001   0.002  -0.001  -0.001  -0.338
 total augmentation occupancy for first ion, spin component:           1
  3.529  -0.636   0.224   0.329  -0.150
 -0.636   0.129  -0.042  -0.061   0.027
  0.224  -0.042   0.021   0.017  -0.008
  0.329  -0.061   0.017   0.034  -0.012
 -0.150   0.027  -0.008  -0.012   0.014


------------------------ aborting loop because EDIFF is reached ----------------------------------------


    CHARGE:  cpu time    0.0190: real time    0.0190
    FORLOC:  cpu time    0.0137: real time    0.0137
    FORNL :  cpu time    0.0205: real time    0.0205
    STRESS:  cpu time    0.1558: real time    0.1558
    FORCOR:  cpu time    0.1440: real time    0.1440
    FORHAR:  cpu time    0.0476: real time    0.0476
    MIXING:  cpu time    0.0062: real time    0.0062
    OFIELD:  cpu time    0.0000: real time    0.0000

  FORCE on cell =-STRESS in cart. coord.  units (eV):
  Direction    XX          YY          ZZ          XY          YZ          ZX
  --------------------------------------------------------------------------------------
  Alpha Z     0.23580     0.23580     0.23580
  Ewald      41.97708    43.37660    42.67036    -0.21730    -1.72214    -2.77631
  Hartree    93.70799    95.45919    94.82325    -0.35331    -0.76045    -1.00598
  E(xc)     -27.11244   -27.12450   -27.11833    -0.00225    -0.00951    -0.01199
  Local    -194.54743  -197.62969  -196.42069     0.66942     2.29266     3.33091
  n-local   -15.67421   -15.74268   -15.69483    -0.02307    -0.02021     0.00670
  augment     0.12016     0.11849     0.12036    -0.00120     0.00096     0.00324
  Kinetic   100.26586   100.92466   100.57478     0.12514     0.48213     0.56393
  Fock        0.00000     0.00000     0.00000     0.00000     0.00000     0.00000
[...]
      5.42664      5.56923      4.46692        -0.059524     -0.083827      0.056536
      5.17733      4.07153      5.41341         0.107754     -0.151499      0.311203
      4.93907      4.58263      4.48533         0.406302      0.279925     -0.218827
 -----------------------------------------------------------------------------------
    total drift:                                0.000106     -0.000097     -0.000151


--------------------------------------------------------------------------------------------------------



  FREE ENERGIE OF THE ION-ELECTRON SYSTEM (eV)
  ---------------------------------------------------
  free  energy   TOTEN  =       -24.02365000 eV

  energy  without entropy=      -24.02365000  energy(sigma->0) =      -24.02365000
 
 d Force =-0.2039519E-02[-0.258E-02,-0.150E-02]  d Energy =-0.2036856E-02-0.266E-05
 d Force =-0.4418150E+00[-0.443E+00,-0.441E+00]  d Ewald  =-0.4418138E+00-0.119E-05


--------------------------------------------------------------------------------------------------------


    POTLOK:  cpu time    0.1433: real time    0.1433


--------------------------------------------------------------------------------------------------------


 stress matrix after NEB project (eV)
      0.06490     -0.15535      0.14928
     -0.15535     -0.33396     -0.06754
      0.14928     -0.06754     -0.02982
  FORCES: max atom, RMS     0.539745    0.359703
  FORCE total and by dimension    0.804321    0.434903
  Stress total and by dimension    0.467531    0.333962
           RANDOM_SEED =         581397971               30                0
   IONSTEP:  cpu time    0.0002: real time    0.0002

  ENERGY OF THE ELECTRON-ION-THERMOSTAT SYSTEM (eV)
  ---------------------------------------------------
% ion-electron   TOTEN  =       -24.023650  see above
  kinetic energy EKIN   =         0.008391
  kin. lattice  EKIN_LAT=         0.000000  (temperature   16.23 K)
  nose potential ES     =         0.000000
  nose kinetic   EPS    =         0.000000
  ---------------------------------------------------
  total energy   ETOTAL =       -24.015259 eV

  maximum distance moved by ions :      0.32E-03

    WAVPRE:  cpu time    0.0489: real time    0.0489
    FEWALD:  cpu time    0.0004: real time    0.0004
    ORTHCH:  cpu time    0.0091: real time    0.0091
 Prediction of Wavefunctions ALPHA= 2.200 BETA=-1.238
     LOOP+:  cpu time    2.2145: real time    2.2148


--------------------------------------- Iteration     10(   1)  ---------------------------------------


    POTLOK:  cpu time    0.1427: real time    0.1427
    SETDIJ:  cpu time    0.0021: real time    0.0021
     EDDAV:  cpu time    0.1474: real time    0.1474
       DOS:  cpu time    0.0002: real time    0.0002
    CHARGE:  cpu time    0.0185: real time    0.0185
    MIXING:  cpu time    0.0046: real time    0.0046
    --------------------------------------------
      LOOP:  cpu time    0.3155: real time    0.3156

 eigenvalue-minimisations  :    64
 total energy-change (2. order) : 0.1993034E-02  (-0.1836320E-04)
 number of electron       8.0000003 magnetization 
 augmentation part        0.1872836 magnetization 

 Broyden mixing:
  rms(total) = 0.10453E-03    rms(broyden)= 0.10426E-03
  rms(prec ) = 0.11777E-03
  weight for this iteration     100.00

 Free energy of the ion-electron system (eV)
  ---------------------------------------------------
  alpha Z        PSCENC =         0.23580218
  Ewald energy   TEWEN  =       131.55113039
  -Hartree energ DENC   =      -287.09689885
  -exchange      EXHF   =         0.00000000
  -V(xc)+E(xc)   XCENC  =        24.82099575
  PAW double counting   =       477.31284939     -478.10632573
  entropy T*S    EENTRO =        -0.00000000
  eigenvalues    EBANDS =       -89.78096371
  atomic energy  EATOM  =       197.04175453
  Solvation  Ediel_sol  =         0.00000000
  ---------------------------------------------------
  free energy    TOTEN  =       -24.02165606 eV

  energy without entropy =      -24.02165606  energy(sigma->0) =      -24.02165606


--------------------------------------------------------------------------------------------------------




--------------------------------------- Iteration     10(   2)  ---------------------------------------


    POTLOK:  cpu time    0.1413: real time    0.1413
    SETDIJ:  cpu time    0.0021: real time    0.0021
    EDDIAG:  cpu time    0.0347: real time    0.0347
  RMM-DIIS:  cpu time    0.1461: real time    0.1461
    ORTHCH:  cpu time    0.0018: real time    0.0018
       DOS:  cpu time    0.0002: real time    0.0002
    CHARGE:  cpu time    0.0188: real time    0.0188
    MIXING:  cpu time    0.0047: real time    0.0047
    --------------------------------------------
      LOOP:  cpu time    0.3497: real time    0.3498

 eigenvalue-minimisations  :    55
 total energy-change (2. order) :-0.6400761E-06  (-0.2602041E-06)
 number of electron       8.0000003 magnetization 
 augmentation part        0.1872887 magnetization 

 Broyden mixing:
  rms(total) = 0.59079E-04    rms(broyden)= 0.58870E-04
  rms(prec ) = 0.69951E-04
  weight for this iteration     100.00

 eigenvalues of (default mixing * dielectric matrix)
  average eigenvalue GAMMA=   0.7226
  0.7226

 Free energy of the ion-electron system (eV)
  ---------------------------------------------------
  alpha Z        PSCENC =         0.23580218
  Ewald energy   TEWEN  =       131.55113039
  -Hartree energ DENC   =      -287.09587465
  -exchange      EXHF   =         0.00000000
  -V(xc)+E(xc)   XCENC  =        24.82092450
  PAW double counting   =       477.32051080     -478.11396435
  entropy T*S    EENTRO =        -0.00000000
  eigenvalues    EBANDS =       -89.78194010
  atomic energy  EATOM  =       197.04175453
  Solvation  Ediel_sol  =         0.00000000
  ---------------------------------------------------
  free energy    TOTEN  =       -24.02165670 eV

  energy without entropy =      -24.02165670  energy(sigma->0) =      -24.02165670


--------------------------------------------------------------------------------------------------------




--------------------------------------- Iteration     10(   3)  ---------------------------------------


    POTLOK:  cpu time    0.1428: real time    0.1428
    SETDIJ:  cpu time    0.0021: real time    0.0021
    EDDIAG:  cpu time    0.0351: real time    0.0351
  RMM-DIIS:  cpu time    0.1198: real time    0.1198
    ORTHCH:  cpu time    0.0017: real time    0.0017
       DOS:  cpu time    0.0002: real time    0.0002
    CHARGE:  cpu time    0.0187: real time    0.0187
    MIXING:  cpu time    0.0049: real time    0.0049
    --------------------------------------------
      LOOP:  cpu time    0.3252: real time    0.3252

 eigenvalue-minimisations  :    45
 total energy-change (2. order) :-0.2411714E-06  (-0.1380118E-07)
 number of electron       8.0000003 magnetization 
 augmentation part        0.1872890 magnetization 

 Broyden mixing:
  rms(total) = 0.54299E-04    rms(broyden)= 0.54283E-04
  rms(prec ) = 0.61023E-04
  weight for this iteration     100.00

 eigenvalues of (default mixing * dielectric matrix)
  average eigenvalue GAMMA=   1.0946
  1.0946  1.0946

 Free energy of the ion-electron system (eV)
  ---------------------------------------------------
  alpha Z        PSCENC =         0.23580218
  Ewald energy   TEWEN  =       131.55113039
  -Hartree energ DENC   =      -287.09552822
  -exchange      EXHF   =         0.00000000
  -V(xc)+E(xc)   XCENC  =        24.82090622
  PAW double counting   =       477.31098084     -478.10443109
  entropy T*S    EENTRO =        -0.00000000
  eigenvalues    EBANDS =       -89.78227178
  atomic energy  EATOM  =       197.04175453
  Solvation  Ediel_sol  =         0.00000000
  ---------------------------------------------------
  free energy    TOTEN  =       -24.02165694 eV

  energy without entropy =      -24.02165694  energy(sigma->0) =      -24.02165694


--------------------------------------------------------------------------------------------------------




--------------------------------------- Iteration     10(   4)  ---------------------------------------


    POTLOK:  cpu time    0.1440: real time    0.1441
    SETDIJ:  cpu time    0.0019: real time    0.0019
    EDDIAG:  cpu time    0.0351: real time    0.0352
  RMM-DIIS:  cpu time    0.1189: real time    0.1189
    ORTHCH:  cpu time    0.0017: real time    0.0017
       DOS:  cpu time    0.0002: real time    0.0002
    --------------------------------------------
      LOOP:  cpu time    0.3018: real time    0.3018

 eigenvalue-minimisations  :    39
 total energy-change (2. order) :-0.3095452E-06  (-0.2992298E-08)
 number of electron       8.0000003 magnetization 
 augmentation part        0.1872890 magnetization 

 Free energy of the ion-electron system (eV)
  ---------------------------------------------------
  alpha Z        PSCENC =         0.23580218
  Ewald energy   TEWEN  =       131.55113039
  -Hartree energ DENC   =      -287.09527662
  -exchange      EXHF   =         0.00000000
  -V(xc)+E(xc)   XCENC  =        24.82089459
  PAW double counting   =       477.28909512     -478.08254391
  entropy T*S    EENTRO =        -0.00000000
  eigenvalues    EBANDS =       -89.78251353
  atomic energy  EATOM  =       197.04175453
  Solvation  Ediel_sol  =         0.00000000
  ---------------------------------------------------
  free energy    TOTEN  =       -24.02165725 eV

  energy without entropy =      -24.02165725  energy(sigma->0) =      -24.02165725


--------------------------------------------------------------------------------------------------------




 average (electrostatic) potential at core
  the test charge radii are     0.5201  0.6991
  (the norm of the test charge is              1.0000)
       1 -41.5102       2 -41.6172       3 -41.4477       4 -41.5915       5 -57.9206
 
 
 
 E-fermi :  -8.2651     XC(G=0):  -0.6829     alpha+bet : -0.2051


 k-point     1 :       0.2500    0.2500    0.2500
  band No.  band energies     occupation 
      1     -16.9402      2.00000
      2      -9.3636      2.00000
      3      -9.3408      2.00000
      4      -9.2469      2.00000
      5      -0.3015      0.00000
      6       0.5373      0.00000
      7       0.6531      0.00000
      8       0.6746      0.00000

 k-point     2 :      -0.2500    0.2500    0.2500
  band No.  band energies     occupation 
      1     -16.9401      2.00000
      2      -9.3635      2.00000
      3      -9.3407      2.00000
      4      -9.2467      2.00000
      5      -0.3097      0.00000
      6       0.5569      0.00000
      7       0.6664      0.00000
      8       0.6932      0.00000

 k-point     3 :       0.2500   -0.2500    0.2500
  band No.  band energies     occupation 
      1     -16.9401      2.00000
      2      -9.3636      2.00000
      3      -9.3407      2.00000
      4      -9.2468      2.00000
      5      -0.3087      0.00000
      6       0.5506      0.00000
      7       0.6620      0.00000
      8       0.6983      0.00000

 k-point     4 :      -0.2500   -0.2500    0.2500
  band No.  band energies     occupation 
      1     -16.9401      2.00000
      2      -9.3636      2.00000
      3      -9.3407      2.00000
      4      -9.2469      2.00000
      5      -0.3105      0.00000
      6       0.5605      0.00000
      7       0.6697      0.00000
      8       0.6955      0.00000


--------------------------------------------------------------------------------------------------------


 soft charge-density along one line, spin component           1
         0         1         2         3         4         5         6         7         8         9
 total charge-density along one line
 
 pseudopotential strength for first ion, spin component:           1
 -2.341  -4.034  -0.001  -0.001   0.001
 -4.034  -6.865  -0.003  -0.004   0.002
 -0.001  -0.003  -0.337   0.002  -0.001
 -0.001  -0.004   0.002  -0.336  -0.001
  0.001   0.002  -0.001  -0.001  -0.338
 total augmentation occupancy for first ion, spin component:           1
  3.558  -0.640   0.233   0.336  -0.147
 -0.640   0.129  -0.043  -0.062   0.027
  0.233  -0.043   0.022   0.018  -0.008
  0.336  -0.062   0.018   0.036  -0.012
 -0.147   0.027  -0.008  -0.012   0.014


------------------------ aborting loop because EDIFF is reached ----------------------------------------


    CHARGE:  cpu time    0.0186: real time    0.0186
    FORLOC:  cpu time    0.0137: real time    0.0137
    FORNL :  cpu time    0.0204: real time    0.0204
    STRESS:  cpu time    0.1556: real time    0.1556
    FORCOR:  cpu time    0.1429: real time    0.1429
    FORHAR:  cpu time    0.0467: real time    0.0467
    MIXING:  cpu time    0.0052: real time    0.0052
    OFIELD:  cpu time    0.0001: real time    0.0001

  FORCE on cell =-STRESS in cart. coord.  units (eV):
  Direction    XX          YY          ZZ          XY          YZ          ZX
  --------------------------------------------------------------------------------------
  Alpha Z     0.23580     0.23580     0.23580
  Ewald      43.14190    44.30182    44.10740    -0.65790    -0.90208    -0.72328
  Hartree    94.40011    96.88152    95.81330    -0.20784    -0.34498    -0.56107
  E(xc)     -27.29617   -27.29575   -27.29675     0.00058    -0.00135    -0.00314
  Local    -195.96372  -200.14771  -198.52012     0.68578     1.06037     1.28462
  n-local   -16.09718   -16.04550   -16.08320     0.01902     0.01246    -0.01052
  augment     0.10963     0.11537     0.11159     0.00184     0.00172    -0.00037
  Kinetic   101.64804   101.62996   101.68022    -0.02862     0.06578     0.15217
  Fock        0.00000     0.00000     0.00000     0.00000     0.00000     0.00000
  -------------------------------------------------------------------------------------
  Total       0.17842    -0.32447     0.04824    -0.18714    -0.10807     0.13842
  in kB       0.27825    -0.50603     0.07523    -0.29185    -0.16854     0.21587
  external pressure =       -0.05 kB  Pullay stress =        0.00 kB

  kinetic pressure (ideal gas correction) =      0.01 kB
  total pressure  =     -0.04 kB
  Total+kin.     0.289      -0.502       0.084      -0.290      -0.169       0.210

 VOLUME and BASIS-vectors are now :
 -----------------------------------------------------------------------------
  energy-cutoff  :      400.00
  volume of cell :     1027.35
      direct lattice vectors                 reciprocal lattice vectors
    10.198875491  0.000000000  0.000000000     0.098050025  0.001503359  0.002628400
    -0.153304240  9.998599610  0.000000000     0.000000000  0.100014006  0.002004988
    -0.266969158 -0.201965308 10.074556260     0.000000000  0.000000000  0.099259955

  length of vectors
    10.198875491  9.999774815 10.080116386     0.098096769  0.100034101  0.099259955


 FORCES acting on ions
    electron-ion (+dipol)            ewald-force                    non-local-force                 convergence-correction
 -----------------------------------------------------------------------------------------------
   -.179E+02 0.286E+02 0.411E+02   0.198E+02 -.316E+02 -.455E+02   -.188E+01 0.297E+01 0.429E+01   0.639E-05 0.415E-04 0.236E-04
   0.532E+02 -.621E+01 0.388E+01   -.594E+02 0.693E+01 -.435E+01   0.568E+01 -.667E+00 0.410E+00   0.897E-04 0.106E-04 -.211E-04
   -.234E+02 -.473E+02 0.736E+00   0.257E+02 0.521E+02 -.788E+00   -.240E+01 -.487E+01 0.861E-01   0.339E-05 -.344E-04 -.108E-04
   -.118E+02 0.252E+02 -.458E+02   0.132E+02 -.280E+02 0.510E+02   -.125E+01 0.268E+01 -.486E+01   0.276E-04 0.394E-04 -.468E-04
   -.534E+00 -.469E+00 0.304E+00   0.744E+00 0.622E+00 -.419E+00   0.255E+00 0.169E+00 -.135E+00   0.216E-03 0.161E-03 -.148E-03
 -----------------------------------------------------------------------------------------------
   -.404E+00 -.284E+00 0.217E+00   -.178E-14 0.000E+00 -.711E-14   0.403E+00 0.284E+00 -.217E+00   0.343E-03 0.218E-03 -.203E-03
 
 
 POSITION                                       TOTAL-FORCE (eV/Angst)
 -----------------------------------------------------------------------------------
      5.30795      3.99532      3.64018         0.010467     -0.088735     -0.098412
      3.86842      4.70789      4.40722        -0.532048      0.058584     -0.064264
      5.42605      5.56990      4.46950        -0.058943     -0.097253      0.034923
      5.17802      4.07333      5.41159         0.114723     -0.194776      0.378439
      4.93907      4.58260      4.48534         0.465661      0.321822     -0.250697
 -----------------------------------------------------------------------------------
    total drift:                               -0.000140     -0.000358     -0.000012


--------------------------------------------------------------------------------------------------------



  FREE ENERGIE OF THE ION-ELECTRON SYSTEM (eV)
  ---------------------------------------------------
  free  energy   TOTEN  =       -24.02165725 eV

  energy  without entropy=      -24.02165725  energy(sigma->0) =      -24.02165725
 
 d Force =-0.1994742E-02[-0.232E-02,-0.167E-02]  d Energy =-0.1992744E-02-0.200E-05
 d Force =-0.3277619E+00[-0.328E+00,-0.328E+00]  d Ewald  =-0.3277619E+00-0.337E-07


--------------------------------------------------------------------------------------------------------


    POTLOK:  cpu time    0.1470: real time    0.1470


--------------------------------------------------------------------------------------------------------


 stress matrix after NEB project (eV)
      0.17842     -0.18714      0.13842
     -0.18714     -0.32447     -0.10807
      0.13842     -0.10807      0.04824
  FORCES: max atom, RMS     0.619079    0.424272
  FORCE total and by dimension    0.948700    0.532048
  Stress total and by dimension    0.520734    0.324473
           RANDOM_SEED =         581397971               30                0
   IONSTEP:  cpu time    0.0002: real time    0.0002

  ENERGY OF THE ELECTRON-ION-THERMOSTAT SYSTEM (eV)
  ---------------------------------------------------
% ion-electron   TOTEN  =       -24.021657  see above
  kinetic energy EKIN   =         0.006447
  kin. lattice  EKIN_LAT=         0.000000  (temperature   12.47 K)
  nose potential ES     =         0.000000
  nose kinetic   EPS    =         0.000000
  ---------------------------------------------------
  total energy   ETOTAL =       -24.015211 eV

  maximum distance moved by ions :      0.32E-03


 mean value of Nose-termostat <S>:     1.000 mean value of <T> :    13.925
 mean temperature <T/S>/<1/S>  :    13.925

    WAVPRE:  cpu time    0.0531: real time    0.0531
    FEWALD:  cpu time    0.0009: real time    0.0008
    ORTHCH:  cpu time    0.0090: real time    0.0090
 Prediction of Wavefunctions ALPHA= 2.120 BETA=-1.148
    POTLOK:  cpu time    0.1461: real time    0.1461
    EDDIAG:  cpu time    0.0354: real time    0.0354
     LOOP+:  cpu time    2.0916: real time    2.0918
    4ORBIT:  cpu time    0.0000: real time    0.0007

 total amount of memory used by VASP MPI-rank0    56684. kBytes
=======================================================================

   base      :      30000. kBytes
   nonl-proj :       2772. kBytes
   fftplans  :       8576. kBytes
   grid      :      13527. kBytes
   one-center:          6. kBytes
   wavefun   :       1803. kBytes
 
  
  
 General timing and accounting informations for this job:
 ========================================================
  
                  Total CPU time used (sec):       28.564
                            User time (sec):       26.054
                          System time (sec):        2.511
                         Elapsed time (sec):       29.003
  
                   Maximum memory used (kb):      177804.
                   Average memory used (kb):           0.
  
                          Minor page faults:       269688
                          Major page faults:           76
                 Voluntary context switches:          424
