unknown system                          
           1
    10.198875    0.000000    0.000000
    -0.153304    9.998600    0.000000
    -0.266969   -0.201965   10.074556
   H    C 
   4   1
Direct configuration=     1
   0.53774876  0.40743960  0.36058013
   0.39475689  0.48035402  0.43825352
   0.55225553  0.56524519  0.44217971
   0.52801244  0.41659551  0.53939180
   0.50307141  0.46741785  0.44514590
Direct configuration=     2
   0.53769968  0.40743060  0.36060900
   0.39488865  0.48033097  0.43823658
   0.55225808  0.56527745  0.44221686
   0.52800360  0.41665660  0.53929873
   0.50306505  0.46741275  0.44514956
Direct configuration=     3
   0.53760366  0.40741275  0.36066428
   0.39514175  0.48028602  0.43820261
   0.55226255  0.56533930  0.44229117
   0.52798753  0.41677477  0.53911979
   0.50305294  0.46740299  0.44515650
Direct configuration=     4
   0.53746375  0.40738476  0.36074227
   0.39549741  0.48022181  0.43815128
   0.55226696  0.56542553  0.44240115
   0.52796739  0.41694234  0.53886858
   0.50303629  0.46738953  0.44516604
Direct configuration=     5
   0.53728439  0.40734474  0.36083760
   0.39592865  0.48014214  0.43808215
   0.55226881  0.56552928  0.44254463
   0.52794766  0.41714830  0.53856462
   0.50301680  0.46737371  0.44517722
Direct configuration=     6
   0.53707125  0.40729039  0.36094352
   0.39640182  0.48005176  0.43799474
   0.55226527  0.56564256  0.44271871
   0.52793385  0.41737891  0.53823214
   0.50299660  0.46735713  0.44518887
Direct configuration=     7
   0.53683088  0.40721927  0.36105253
   0.39687916  0.47995603  0.43788868
   0.55225349  0.56575693  0.44291986
   0.52793195  0.41761879  0.53789818
   0.50297801  0.46734153  0.44519968
Direct configuration=     8
   0.53657039  0.40712924  0.36115705
   0.39732178  0.47986053  0.43776389
   0.55223082  0.56586408  0.44314402
   0.52794787  0.41785207  0.53759040
   0.50296341  0.46732863  0.44520833
Direct configuration=     9
   0.53629714  0.40701851  0.36124971
   0.39769273  0.47977060  0.43762071
   0.55219525  0.56595680  0.44338663
   0.52798684  0.41806353  0.53733494
   0.50295499  0.46732001  0.44521360
Direct configuration=    10
   0.53601847  0.40688602  0.36132400
   0.39796052  0.47969093  0.43746021
   0.55214566  0.56602958  0.44364278
   0.52805272  0.41823995  0.53715400
   0.50295454  0.46731693  0.44521452
