   5   5   0   0
  0.2015155E+03  0.1006148E-08  0.9782999E-09  0.1024498E-08  0.5000000E-15
  1.000000000000000E-004
  CAR 
 unknown system                          
      2.72820084    -18.90436036  301     -8.23222642      1.00000000
    -18.904  0.0000E+00  0.0000E+00
    -18.832  0.0000E+00  0.0000E+00
    -18.760  0.0000E+00  0.0000E+00
    -18.688  0.0000E+00  0.0000E+00
    -18.616  0.0000E+00  0.0000E+00
    -18.544  0.0000E+00  0.0000E+00
    -18.472  0.0000E+00  0.0000E+00
    -18.400  0.0000E+00  0.0000E+00
    -18.327  0.0000E+00  0.0000E+00
    -18.255  0.0000E+00  0.0000E+00
    -18.183  0.0000E+00  0.0000E+00
    -18.111  0.0000E+00  0.0000E+00
    -18.039  0.1326E-13  0.9548E-15
    -17.967  0.7307E-12  0.5357E-13
    -17.895  0.3149E-10  0.2321E-11
    -17.823  0.1050E-08  0.7795E-10
    -17.751  0.2712E-07  0.2031E-08
    -17.679  0.5423E-06  0.4108E-07
    -17.606  0.8400E-05  0.6460E-06
    -17.534  0.1008E-03  0.7905E-05
    -17.462  0.9373E-03  0.7540E-04
    -17.390  0.6755E-02  0.5619E-03
    -17.318  0.3774E-01  0.3280E-02
    -17.246  0.1635E+00  0.1506E-01
    -17.174  0.5495E+00  0.5462E-01
    -17.102  0.1432E+01  0.1577E+00
    -17.030  0.2895E+01  0.3662E+00
    -16.957  0.4542E+01  0.6933E+00
    -16.885  0.5528E+01  0.1091E+01
    -16.813  0.5221E+01  0.1467E+01
    -16.741  0.3826E+01  0.1743E+01
    -16.669  0.2175E+01  0.1899E+01
    -16.597  0.9596E+00  0.1969E+01
    -16.525  0.3284E+00  0.1992E+01
    -16.453  0.8717E-01  0.1998E+01
    -16.381  0.1794E-01  0.2000E+01
    -16.308  0.2864E-02  0.2000E+01
    -16.236  0.3545E-03  0.2000E+01
    -16.164  0.3400E-04  0.2000E+01
    -16.092  0.2527E-05  0.2000E+01
    -16.020  0.1455E-06  0.2000E+01
    -15.948  0.6492E-08  0.2000E+01
    -15.876  0.2243E-09  0.2000E+01
    -15.804  0.5999E-11  0.2000E+01
    -15.732  0.1252E-12  0.2000E+01
    -15.659  0.6173E-15  0.2000E+01
    -15.587  0.0000E+00  0.2000E+01
    -15.515  0.0000E+00  0.2000E+01
    -15.443  0.0000E+00  0.2000E+01
    -15.371  0.0000E+00  0.2000E+01
    -15.299  0.0000E+00  0.2000E+01
    -15.227  0.0000E+00  0.2000E+01
    -15.155  0.0000E+00  0.2000E+01
    -15.083  0.0000E+00  0.2000E+01
    -15.010  0.0000E+00  0.2000E+01
    -14.938  0.0000E+00  0.2000E+01
    -14.866  0.0000E+00  0.2000E+01
    -14.794  0.0000E+00  0.2000E+01
    -14.722  0.0000E+00  0.2000E+01
    -14.650  0.0000E+00  0.2000E+01
    -14.578  0.0000E+00  0.2000E+01
    -14.506  0.0000E+00  0.2000E+01
    -14.434  0.0000E+00  0.2000E+01
    -14.362  0.0000E+00  0.2000E+01
    -14.289  0.0000E+00  0.2000E+01
    -14.217  0.0000E+00  0.2000E+01
    -14.145  0.0000E+00  0.2000E+01
    -14.073  0.0000E+00  0.2000E+01
    -14.001  0.0000E+00  0.2000E+01
    -13.929  0.0000E+00  0.2000E+01
    -13.857  0.0000E+00  0.2000E+01
    -13.785  0.0000E+00  0.2000E+01
    -13.713  0.0000E+00  0.2000E+01
    -13.640  0.0000E+00  0.2000E+01
    -13.568  0.0000E+00  0.2000E+01
    -13.496  0.0000E+00  0.2000E+01
    -13.424  0.0000E+00  0.2000E+01
    -13.352  0.0000E+00  0.2000E+01
    -13.280  0.0000E+00  0.2000E+01
    -13.208  0.0000E+00  0.2000E+01
    -13.136  0.0000E+00  0.2000E+01
    -13.064  0.0000E+00  0.2000E+01
    -12.991  0.0000E+00  0.2000E+01
    -12.919  0.0000E+00  0.2000E+01
    -12.847  0.0000E+00  0.2000E+01
    -12.775  0.0000E+00  0.2000E+01
    -12.703  0.0000E+00  0.2000E+01
    -12.631  0.0000E+00  0.2000E+01
    -12.559  0.0000E+00  0.2000E+01
    -12.487  0.0000E+00  0.2000E+01
    -12.415  0.0000E+00  0.2000E+01
    -12.342  0.0000E+00  0.2000E+01
    -12.270  0.0000E+00  0.2000E+01
    -12.198  0.0000E+00  0.2000E+01
    -12.126  0.0000E+00  0.2000E+01
    -12.054  0.0000E+00  0.2000E+01
    -11.982  0.0000E+00  0.2000E+01
    -11.910  0.0000E+00  0.2000E+01
    -11.838  0.0000E+00  0.2000E+01
    -11.766  0.0000E+00  0.2000E+01
    -11.694  0.0000E+00  0.2000E+01
    -11.621  0.0000E+00  0.2000E+01
    -11.549  0.0000E+00  0.2000E+01
    -11.477  0.0000E+00  0.2000E+01
    -11.405  0.0000E+00  0.2000E+01
    -11.333  0.0000E+00  0.2000E+01
    -11.261  0.0000E+00  0.2000E+01
    -11.189  0.0000E+00  0.2000E+01
    -11.117  0.0000E+00  0.2000E+01
    -11.045  0.0000E+00  0.2000E+01
    -10.972  0.0000E+00  0.2000E+01
    -10.900  0.0000E+00  0.2000E+01
    -10.828  0.0000E+00  0.2000E+01
    -10.756  0.0000E+00  0.2000E+01
    -10.684  0.0000E+00  0.2000E+01
    -10.612  0.3086E-15  0.2000E+01
    -10.540  0.2619E-13  0.2000E+01
    -10.468  0.1362E-11  0.2000E+01
    -10.396  0.5506E-10  0.2000E+01
    -10.323  0.1733E-08  0.2000E+01
    -10.251  0.4249E-07  0.2000E+01
    -10.179  0.8123E-06  0.2000E+01
    -10.107  0.1212E-04  0.2000E+01
    -10.035  0.1412E-03  0.2000E+01
     -9.963  0.1287E-02  0.2000E+01
     -9.891  0.9184E-02  0.2001E+01
     -9.819  0.5141E-01  0.2004E+01
     -9.747  0.2260E+00  0.2021E+01
     -9.674  0.7819E+00  0.2077E+01
     -9.602  0.2135E+01  0.2231E+01
     -9.530  0.4617E+01  0.2563E+01
     -9.458  0.7965E+01  0.3137E+01
     -9.386  0.1110E+02  0.3936E+01
     -9.314  0.1275E+02  0.4854E+01
     -9.242  0.1247E+02  0.5752E+01
     -9.170  0.1077E+02  0.6527E+01
     -9.098  0.8380E+01  0.7130E+01
     -9.025  0.5823E+01  0.7550E+01
     -8.953  0.3495E+01  0.7801E+01
     -8.881  0.1748E+01  0.7927E+01
     -8.809  0.7097E+00  0.7978E+01
     -8.737  0.2302E+00  0.7995E+01
     -8.665  0.5910E-01  0.7999E+01
     -8.593  0.1195E-01  0.8000E+01
     -8.521  0.1896E-02  0.8000E+01
     -8.449  0.2355E-03  0.8000E+01
     -8.377  0.2287E-04  0.8000E+01
     -8.304  0.1734E-05  0.8000E+01
     -8.232  0.1024E-06  0.8000E+01
     -8.160  0.4714E-08  0.8000E+01
     -8.088  0.1687E-09  0.8000E+01
     -8.016  0.4696E-11  0.8000E+01
     -7.944  0.1014E-12  0.8000E+01
     -7.872  0.1543E-14  0.8000E+01
     -7.800  0.0000E+00  0.8000E+01
     -7.728  0.0000E+00  0.8000E+01
     -7.655  0.0000E+00  0.8000E+01
     -7.583  0.0000E+00  0.8000E+01
     -7.511  0.0000E+00  0.8000E+01
     -7.439  0.0000E+00  0.8000E+01
     -7.367  0.0000E+00  0.8000E+01
     -7.295  0.0000E+00  0.8000E+01
     -7.223  0.0000E+00  0.8000E+01
     -7.151  0.0000E+00  0.8000E+01
     -7.079  0.0000E+00  0.8000E+01
     -7.006  0.0000E+00  0.8000E+01
     -6.934  0.0000E+00  0.8000E+01
     -6.862  0.0000E+00  0.8000E+01
     -6.790  0.0000E+00  0.8000E+01
     -6.718  0.0000E+00  0.8000E+01
     -6.646  0.0000E+00  0.8000E+01
     -6.574  0.0000E+00  0.8000E+01
     -6.502  0.0000E+00  0.8000E+01
     -6.430  0.0000E+00  0.8000E+01
     -6.357  0.0000E+00  0.8000E+01
     -6.285  0.0000E+00  0.8000E+01
     -6.213  0.0000E+00  0.8000E+01
     -6.141  0.0000E+00  0.8000E+01
     -6.069  0.0000E+00  0.8000E+01
     -5.997  0.0000E+00  0.8000E+01
     -5.925  0.0000E+00  0.8000E+01
     -5.853  0.0000E+00  0.8000E+01
     -5.781  0.0000E+00  0.8000E+01
     -5.708  0.0000E+00  0.8000E+01
     -5.636  0.0000E+00  0.8000E+01
     -5.564  0.0000E+00  0.8000E+01
     -5.492  0.0000E+00  0.8000E+01
     -5.420  0.0000E+00  0.8000E+01
     -5.348  0.0000E+00  0.8000E+01
     -5.276  0.0000E+00  0.8000E+01
     -5.204  0.0000E+00  0.8000E+01
     -5.132  0.0000E+00  0.8000E+01
     -5.060  0.0000E+00  0.8000E+01
     -4.987  0.0000E+00  0.8000E+01
     -4.915  0.0000E+00  0.8000E+01
     -4.843  0.0000E+00  0.8000E+01
     -4.771  0.0000E+00  0.8000E+01
     -4.699  0.0000E+00  0.8000E+01
     -4.627  0.0000E+00  0.8000E+01
     -4.555  0.0000E+00  0.8000E+01
     -4.483  0.0000E+00  0.8000E+01
     -4.411  0.0000E+00  0.8000E+01
     -4.338  0.0000E+00  0.8000E+01
     -4.266  0.0000E+00  0.8000E+01
     -4.194  0.0000E+00  0.8000E+01
     -4.122  0.0000E+00  0.8000E+01
     -4.050  0.0000E+00  0.8000E+01
     -3.978  0.0000E+00  0.8000E+01
     -3.906  0.0000E+00  0.8000E+01
     -3.834  0.0000E+00  0.8000E+01
     -3.762  0.0000E+00  0.8000E+01
     -3.689  0.0000E+00  0.8000E+01
     -3.617  0.0000E+00  0.8000E+01
     -3.545  0.0000E+00  0.8000E+01
     -3.473  0.0000E+00  0.8000E+01
     -3.401  0.0000E+00  0.8000E+01
     -3.329  0.0000E+00  0.8000E+01
     -3.257  0.0000E+00  0.8000E+01
     -3.185  0.0000E+00  0.8000E+01
     -3.113  0.0000E+00  0.8000E+01
     -3.040  0.0000E+00  0.8000E+01
     -2.968  0.0000E+00  0.8000E+01
     -2.896  0.0000E+00  0.8000E+01
     -2.824  0.0000E+00  0.8000E+01
     -2.752  0.0000E+00  0.8000E+01
     -2.680  0.0000E+00  0.8000E+01
     -2.608  0.0000E+00  0.8000E+01
     -2.536  0.0000E+00  0.8000E+01
     -2.464  0.0000E+00  0.8000E+01
     -2.392  0.0000E+00  0.8000E+01
     -2.319  0.0000E+00  0.8000E+01
     -2.247  0.0000E+00  0.8000E+01
     -2.175  0.0000E+00  0.8000E+01
     -2.103  0.0000E+00  0.8000E+01
     -2.031  0.0000E+00  0.8000E+01
     -1.959  0.0000E+00  0.8000E+01
     -1.887  0.0000E+00  0.8000E+01
     -1.815  0.0000E+00  0.8000E+01
     -1.743  0.0000E+00  0.8000E+01
     -1.670  0.0000E+00  0.8000E+01
     -1.598  0.0000E+00  0.8000E+01
     -1.526  0.0000E+00  0.8000E+01
     -1.454  0.1392E-13  0.8000E+01
     -1.382  0.7592E-12  0.8000E+01
     -1.310  0.3245E-10  0.8000E+01
     -1.238  0.1075E-08  0.8000E+01
     -1.166  0.2757E-07  0.8000E+01
     -1.094  0.5482E-06  0.8000E+01
     -1.021  0.8451E-05  0.8000E+01
     -0.949  0.1010E-03  0.8000E+01
     -0.877  0.9361E-03  0.8000E+01
     -0.805  0.6730E-02  0.8001E+01
     -0.733  0.3754E-01  0.8003E+01
     -0.661  0.1625E+00  0.8015E+01
     -0.589  0.5457E+00  0.8054E+01
     -0.517  0.1423E+01  0.8157E+01
     -0.445  0.2879E+01  0.8364E+01
     -0.372  0.4524E+01  0.8690E+01
     -0.300  0.5518E+01  0.9087E+01
     -0.228  0.5226E+01  0.9463E+01
     -0.156  0.3842E+01  0.9740E+01
     -0.084  0.2193E+01  0.9898E+01
     -0.012  0.9722E+00  0.9968E+01
      0.060  0.3400E+00  0.9993E+01
      0.132  0.1241E+00  0.1000E+02
      0.204  0.1795E+00  0.1001E+02
      0.277  0.5898E+00  0.1006E+02
      0.349  0.1704E+01  0.1018E+02
      0.421  0.3971E+01  0.1047E+02
      0.493  0.7498E+01  0.1101E+02
      0.565  0.1155E+02  0.1184E+02
      0.637  0.1454E+02  0.1288E+02
      0.709  0.1496E+02  0.1396E+02
      0.781  0.1251E+02  0.1486E+02
      0.853  0.8430E+01  0.1547E+02
      0.925  0.4545E+01  0.1580E+02
      0.998  0.1947E+01  0.1594E+02
      1.070  0.6590E+00  0.1598E+02
      1.142  0.1755E+00  0.1600E+02
      1.214  0.3664E-01  0.1600E+02
      1.286  0.5988E-02  0.1600E+02
      1.358  0.7645E-03  0.1600E+02
      1.430  0.7616E-04  0.1600E+02
      1.502  0.5915E-05  0.1600E+02
      1.574  0.3577E-06  0.1600E+02
      1.647  0.1684E-07  0.1600E+02
      1.719  0.6165E-09  0.1600E+02
      1.791  0.1754E-10  0.1600E+02
      1.863  0.3884E-12  0.1600E+02
      1.935  0.6167E-14  0.1600E+02
      2.007  0.0000E+00  0.1600E+02
      2.079  0.0000E+00  0.1600E+02
      2.151  0.0000E+00  0.1600E+02
      2.223  0.0000E+00  0.1600E+02
      2.296  0.0000E+00  0.1600E+02
      2.368  0.0000E+00  0.1600E+02
      2.440  0.0000E+00  0.1600E+02
      2.512  0.0000E+00  0.1600E+02
      2.584  0.0000E+00  0.1600E+02
      2.656  0.0000E+00  0.1600E+02
      2.728  0.0000E+00  0.1600E+02
      2.72582744    -18.90666179  301     -8.23456335      1.00000000
    -18.907  0.0000E+00  0.0000E+00
    -18.835  0.0000E+00  0.0000E+00
    -18.762  0.0000E+00  0.0000E+00
    -18.690  0.0000E+00  0.0000E+00
    -18.618  0.0000E+00  0.0000E+00
    -18.546  0.0000E+00  0.0000E+00
    -18.474  0.0000E+00  0.0000E+00
    -18.402  0.0000E+00  0.0000E+00
    -18.330  0.0000E+00  0.0000E+00
    -18.258  0.0000E+00  0.0000E+00
    -18.186  0.0000E+00  0.0000E+00
    -18.113  0.0000E+00  0.0000E+00
    -18.041  0.1386E-14  0.9992E-16
    -17.969  0.7821E-13  0.5740E-14
    -17.897  0.3370E-11  0.2487E-12
    -17.825  0.1124E-09  0.8352E-11
    -17.753  0.2899E-08  0.2174E-09
    -17.681  0.5788E-07  0.4391E-08
    -17.609  0.8944E-06  0.6889E-07
    -17.537  0.1070E-04  0.8405E-06
    -17.464  0.9915E-04  0.7990E-05
    -17.392  0.7115E-03  0.5929E-04
    -17.320  0.3956E-02  0.3445E-03
    -17.248  0.1704E-01  0.1573E-02
    -17.176  0.5689E-01  0.5676E-02
    -17.104  0.1472E+00  0.1629E-01
    -17.032  0.2954E+00  0.3759E-01
    -16.960  0.4595E+00  0.7073E-01
    -16.888  0.5542E+00  0.1107E+00
    -16.816  0.5182E+00  0.1481E+00
    -16.743  0.3758E+00  0.1752E+00
    -16.671  0.2113E+00  0.1904E+00
    -16.599  0.9208E-01  0.1970E+00
    -16.527  0.3111E-01  0.1993E+00
    -16.455  0.8147E-02  0.1999E+00
    -16.383  0.1653E-02  0.2000E+00
    -16.311  0.2600E-03  0.2000E+00
    -16.239  0.3167E-04  0.2000E+00
    -16.167  0.2987E-05  0.2000E+00
    -16.094  0.2182E-06  0.2000E+00
    -16.022  0.1234E-07  0.2000E+00
    -15.950  0.5398E-09  0.2000E+00
    -15.878  0.1828E-10  0.2000E+00
    -15.806  0.4788E-12  0.2000E+00
    -15.734  0.9854E-14  0.2000E+00
    -15.662  0.0000E+00  0.2000E+00
    -15.590  0.0000E+00  0.2000E+00
    -15.518  0.0000E+00  0.2000E+00
    -15.445  0.0000E+00  0.2000E+00
    -15.373  0.0000E+00  0.2000E+00
    -15.301  0.0000E+00  0.2000E+00
    -15.229  0.0000E+00  0.2000E+00
    -15.157  0.0000E+00  0.2000E+00
    -15.085  0.0000E+00  0.2000E+00
    -15.013  0.0000E+00  0.2000E+00
    -14.941  0.0000E+00  0.2000E+00
    -14.869  0.0000E+00  0.2000E+00
    -14.796  0.0000E+00  0.2000E+00
    -14.724  0.0000E+00  0.2000E+00
    -14.652  0.0000E+00  0.2000E+00
    -14.580  0.0000E+00  0.2000E+00
    -14.508  0.0000E+00  0.2000E+00
    -14.436  0.0000E+00  0.2000E+00
    -14.364  0.0000E+00  0.2000E+00
    -14.292  0.0000E+00  0.2000E+00
    -14.220  0.0000E+00  0.2000E+00
    -14.148  0.0000E+00  0.2000E+00
    -14.075  0.0000E+00  0.2000E+00
    -14.003  0.0000E+00  0.2000E+00
    -13.931  0.0000E+00  0.2000E+00
    -13.859  0.0000E+00  0.2000E+00
    -13.787  0.0000E+00  0.2000E+00
    -13.715  0.0000E+00  0.2000E+00
    -13.643  0.0000E+00  0.2000E+00
    -13.571  0.0000E+00  0.2000E+00
    -13.499  0.0000E+00  0.2000E+00
    -13.426  0.0000E+00  0.2000E+00
    -13.354  0.0000E+00  0.2000E+00
    -13.282  0.0000E+00  0.2000E+00
    -13.210  0.0000E+00  0.2000E+00
    -13.138  0.0000E+00  0.2000E+00
    -13.066  0.0000E+00  0.2000E+00
    -12.994  0.0000E+00  0.2000E+00
    -12.922  0.0000E+00  0.2000E+00
    -12.850  0.0000E+00  0.2000E+00
    -12.777  0.0000E+00  0.2000E+00
    -12.705  0.0000E+00  0.2000E+00
    -12.633  0.0000E+00  0.2000E+00
    -12.561  0.0000E+00  0.2000E+00
    -12.489  0.0000E+00  0.2000E+00
    -12.417  0.0000E+00  0.2000E+00
    -12.345  0.0000E+00  0.2000E+00
    -12.273  0.0000E+00  0.2000E+00
    -12.201  0.0000E+00  0.2000E+00
    -12.128  0.0000E+00  0.2000E+00
    -12.056  0.0000E+00  0.2000E+00
    -11.984  0.0000E+00  0.2000E+00
    -11.912  0.0000E+00  0.2000E+00
    -11.840  0.0000E+00  0.2000E+00
    -11.768  0.0000E+00  0.2000E+00
    -11.696  0.0000E+00  0.2000E+00
    -11.624  0.0000E+00  0.2000E+00
    -11.552  0.0000E+00  0.2000E+00
    -11.480  0.0000E+00  0.2000E+00
    -11.407  0.0000E+00  0.2000E+00
    -11.335  0.0000E+00  0.2000E+00
    -11.263  0.0000E+00  0.2000E+00
    -11.191  0.0000E+00  0.2000E+00
    -11.119  0.0000E+00  0.2000E+00
    -11.047  0.0000E+00  0.2000E+00
    -10.975  0.0000E+00  0.2000E+00
    -10.903  0.0000E+00  0.2000E+00
    -10.831  0.0000E+00  0.2000E+00
    -10.758  0.0000E+00  0.2000E+00
    -10.686  0.0000E+00  0.2000E+00
    -10.614  0.0000E+00  0.2000E+00
    -10.542  0.4619E-15  0.2000E+00
    -10.470  0.2856E-13  0.2000E+00
    -10.398  0.1317E-11  0.2000E+00
    -10.326  0.4703E-10  0.2000E+00
    -10.254  0.1301E-08  0.2000E+00
    -10.182  0.2788E-07  0.2000E+00
    -10.109  0.4633E-06  0.2000E+00
    -10.037  0.5978E-05  0.2000E+00
     -9.965  0.5996E-04  0.2000E+00
     -9.893  0.4685E-03  0.2000E+00
     -9.821  0.2858E-02  0.2002E+00
     -9.749  0.1366E-01  0.2012E+00
     -9.677  0.5140E-01  0.2049E+00
     -9.605  0.1532E+00  0.2160E+00
     -9.533  0.3646E+00  0.2423E+00
     -9.460  0.6990E+00  0.2927E+00
     -9.388  0.1090E+01  0.3713E+00
     -9.316  0.1395E+01  0.4719E+00
     -9.244  0.1470E+01  0.5779E+00
     -9.172  0.1277E+01  0.6700E+00
     -9.100  0.9082E+00  0.7354E+00
     -9.028  0.5252E+00  0.7733E+00
     -8.956  0.2446E+00  0.7910E+00
     -8.884  0.9099E-01  0.7975E+00
     -8.812  0.2683E-01  0.7995E+00
     -8.739  0.6234E-02  0.7999E+00
     -8.667  0.1137E-02  0.8000E+00
     -8.595  0.1621E-03  0.8000E+00
     -8.523  0.1803E-04  0.8000E+00
     -8.451  0.1561E-05  0.8000E+00
     -8.379  0.1051E-06  0.8000E+00
     -8.307  0.5490E-08  0.8000E+00
     -8.235  0.2225E-09  0.8000E+00
     -8.163  0.6986E-11  0.8000E+00
     -8.090  0.1702E-12  0.8000E+00
     -8.018  0.3079E-14  0.8000E+00
     -7.946  0.0000E+00  0.8000E+00
     -7.874  0.0000E+00  0.8000E+00
     -7.802  0.0000E+00  0.8000E+00
     -7.730  0.0000E+00  0.8000E+00
     -7.658  0.0000E+00  0.8000E+00
     -7.586  0.0000E+00  0.8000E+00
     -7.514  0.0000E+00  0.8000E+00
     -7.441  0.0000E+00  0.8000E+00
     -7.369  0.0000E+00  0.8000E+00
     -7.297  0.0000E+00  0.8000E+00
     -7.225  0.0000E+00  0.8000E+00
     -7.153  0.0000E+00  0.8000E+00
     -7.081  0.0000E+00  0.8000E+00
     -7.009  0.0000E+00  0.8000E+00
     -6.937  0.0000E+00  0.8000E+00
     -6.865  0.0000E+00  0.8000E+00
     -6.792  0.0000E+00  0.8000E+00
     -6.720  0.0000E+00  0.8000E+00
     -6.648  0.0000E+00  0.8000E+00
     -6.576  0.0000E+00  0.8000E+00
     -6.504  0.0000E+00  0.8000E+00
     -6.432  0.0000E+00  0.8000E+00
     -6.360  0.0000E+00  0.8000E+00
     -6.288  0.0000E+00  0.8000E+00
     -6.216  0.0000E+00  0.8000E+00
     -6.143  0.0000E+00  0.8000E+00
     -6.071  0.0000E+00  0.8000E+00
     -5.999  0.0000E+00  0.8000E+00
     -5.927  0.0000E+00  0.8000E+00
     -5.855  0.0000E+00  0.8000E+00
     -5.783  0.0000E+00  0.8000E+00
     -5.711  0.0000E+00  0.8000E+00
     -5.639  0.0000E+00  0.8000E+00
     -5.567  0.0000E+00  0.8000E+00
     -5.495  0.0000E+00  0.8000E+00
     -5.422  0.0000E+00  0.8000E+00
     -5.350  0.0000E+00  0.8000E+00
     -5.278  0.0000E+00  0.8000E+00
     -5.206  0.0000E+00  0.8000E+00
     -5.134  0.0000E+00  0.8000E+00
     -5.062  0.0000E+00  0.8000E+00
     -4.990  0.0000E+00  0.8000E+00
     -4.918  0.0000E+00  0.8000E+00
     -4.846  0.0000E+00  0.8000E+00
     -4.773  0.0000E+00  0.8000E+00
     -4.701  0.0000E+00  0.8000E+00
     -4.629  0.0000E+00  0.8000E+00
     -4.557  0.0000E+00  0.8000E+00
     -4.485  0.0000E+00  0.8000E+00
     -4.413  0.0000E+00  0.8000E+00
     -4.341  0.0000E+00  0.8000E+00
     -4.269  0.0000E+00  0.8000E+00
     -4.197  0.0000E+00  0.8000E+00
     -4.124  0.0000E+00  0.8000E+00
     -4.052  0.0000E+00  0.8000E+00
     -3.980  0.0000E+00  0.8000E+00
     -3.908  0.0000E+00  0.8000E+00
     -3.836  0.0000E+00  0.8000E+00
     -3.764  0.0000E+00  0.8000E+00
     -3.692  0.0000E+00  0.8000E+00
     -3.620  0.0000E+00  0.8000E+00
     -3.548  0.0000E+00  0.8000E+00
     -3.475  0.0000E+00  0.8000E+00
     -3.403  0.0000E+00  0.8000E+00
     -3.331  0.0000E+00  0.8000E+00
     -3.259  0.0000E+00  0.8000E+00
     -3.187  0.0000E+00  0.8000E+00
     -3.115  0.0000E+00  0.8000E+00
     -3.043  0.0000E+00  0.8000E+00
     -2.971  0.0000E+00  0.8000E+00
     -2.899  0.0000E+00  0.8000E+00
     -2.827  0.0000E+00  0.8000E+00
     -2.754  0.0000E+00  0.8000E+00
     -2.682  0.0000E+00  0.8000E+00
     -2.610  0.0000E+00  0.8000E+00
     -2.538  0.0000E+00  0.8000E+00
     -2.466  0.0000E+00  0.8000E+00
     -2.394  0.0000E+00  0.8000E+00
     -2.322  0.0000E+00  0.8000E+00
     -2.250  0.0000E+00  0.8000E+00
     -2.178  0.0000E+00  0.8000E+00
     -2.105  0.0000E+00  0.8000E+00
     -2.033  0.0000E+00  0.8000E+00
     -1.961  0.0000E+00  0.8000E+00
     -1.889  0.0000E+00  0.8000E+00
     -1.817  0.0000E+00  0.8000E+00
     -1.745  0.0000E+00  0.8000E+00
     -1.673  0.0000E+00  0.8000E+00
     -1.601  0.0000E+00  0.8000E+00
     -1.529  0.0000E+00  0.8000E+00
     -1.456  0.7698E-15  0.8000E+00
     -1.384  0.4330E-13  0.8000E+00
     -1.312  0.1937E-11  0.8000E+00
     -1.240  0.6705E-10  0.8000E+00
     -1.168  0.1796E-08  0.8000E+00
     -1.096  0.3723E-07  0.8000E+00
     -1.024  0.5976E-06  0.8000E+00
     -0.952  0.7427E-05  0.8000E+00
     -0.880  0.7150E-04  0.8000E+00
     -0.807  0.5332E-03  0.8000E+00
     -0.735  0.3081E-02  0.8003E+00
     -0.663  0.1380E-01  0.8013E+00
     -0.591  0.4792E-01  0.8047E+00
     -0.519  0.1290E+00  0.8140E+00
     -0.447  0.2692E+00  0.8334E+00
     -0.375  0.4357E+00  0.8648E+00
     -0.303  0.5469E+00  0.9043E+00
     -0.231  0.5325E+00  0.9427E+00
     -0.159  0.4021E+00  0.9717E+00
     -0.086  0.2354E+00  0.9887E+00
     -0.014  0.1070E+00  0.9964E+00
      0.058  0.3818E-01  0.9991E+00
      0.130  0.1345E-01  0.1000E+01
      0.202  0.1700E-01  0.1001E+01
      0.274  0.5510E-01  0.1005E+01
      0.346  0.1610E+00  0.1017E+01
      0.418  0.3799E+00  0.1044E+01
      0.490  0.7264E+00  0.1097E+01
      0.563  0.1132E+01  0.1178E+01
      0.635  0.1444E+01  0.1282E+01
      0.707  0.1503E+01  0.1391E+01
      0.779  0.1270E+01  0.1482E+01
      0.851  0.8647E+00  0.1545E+01
      0.923  0.4708E+00  0.1579E+01
      0.995  0.2035E+00  0.1593E+01
      1.067  0.6943E-01  0.1598E+01
      1.139  0.1862E-01  0.1600E+01
      1.212  0.3915E-02  0.1600E+01
      1.284  0.6437E-03  0.1600E+01
      1.356  0.8262E-04  0.1600E+01
      1.428  0.8269E-05  0.1600E+01
      1.500  0.6446E-06  0.1600E+01
      1.572  0.3911E-07  0.1600E+01
      1.644  0.1845E-08  0.1600E+01
      1.716  0.6767E-10  0.1600E+01
      1.788  0.1927E-11  0.1600E+01
      1.861  0.4273E-13  0.1600E+01
      1.933  0.6159E-15  0.1600E+01
      2.005  0.0000E+00  0.1600E+01
      2.077  0.0000E+00  0.1600E+01
      2.149  0.0000E+00  0.1600E+01
      2.221  0.0000E+00  0.1600E+01
      2.293  0.0000E+00  0.1600E+01
      2.365  0.0000E+00  0.1600E+01
      2.437  0.0000E+00  0.1600E+01
      2.510  0.0000E+00  0.1600E+01
      2.582  0.0000E+00  0.1600E+01
      2.654  0.0000E+00  0.1600E+01
      2.726  0.0000E+00  0.1600E+01
