    5    5   10    1
  0.2015155E+03  0.1006148E-08  0.9782999E-09  0.1024498E-08  0.5000000E-15
  1.000000000000000E-004
  CAR 
 unknown system                          
      8      4      8
 
  0.2500000E+00  0.2500000E+00  0.2500000E+00  0.2500000E+00
    1      -16.906638   1.000000
    2       -9.388819   1.000000
    3       -9.293284   1.000000
    4       -9.210981   1.000000
    5       -0.310602   0.000000
    6        0.556518   0.000000
    7        0.671722   0.000000
    8        0.711735   0.000000
 
 -0.2500000E+00  0.2500000E+00  0.2500000E+00  0.2500000E+00
    1      -16.906662   1.000000
    2       -9.388845   1.000000
    3       -9.293271   1.000000
    4       -9.210828   1.000000
    5       -0.303756   0.000000
    6        0.540578   0.000000
    7        0.656179   0.000000
    8        0.692145   0.000000
 
  0.2500000E+00 -0.2500000E+00  0.2500000E+00  0.2500000E+00
    1      -16.906620   1.000000
    2       -9.388751   1.000000
    3       -9.293168   1.000000
    4       -9.210822   1.000000
    5       -0.310824   0.000000
    6        0.563850   0.000000
    7        0.664666   0.000000
    8        0.707936   0.000000
 
 -0.2500000E+00 -0.2500000E+00  0.2500000E+00  0.2500000E+00
    1      -16.906601   1.000000
    2       -9.388702   1.000000
    3       -9.293277   1.000000
    4       -9.210840   1.000000
    5       -0.316121   0.000000
    6        0.572128   0.000000
    7        0.678048   0.000000
    8        0.725827   0.000000
