       N       E                     dE             d eps       ncg     rms          rms(c)
DAV:   1     0.118604754539E+02    0.11860E+02   -0.20599E+03    96   0.426E+02
DAV:   2    -0.239906472244E+02   -0.35851E+02   -0.35851E+02    72   0.112E+02
DAV:   3    -0.273640597428E+02   -0.33734E+01   -0.33734E+01    64   0.408E+01
DAV:   4    -0.274864140061E+02   -0.12235E+00   -0.12235E+00   128   0.846E+00
DAV:   5    -0.274864465017E+02   -0.32496E-04   -0.32496E-04    88   0.151E-01    0.866E+00
RMM:   6    -0.246322776558E+02    0.28542E+01   -0.52674E+00    64   0.140E+01    0.427E+00
RMM:   7    -0.241482120088E+02    0.48407E+00   -0.11720E+00    64   0.626E+00    0.227E+00
RMM:   8    -0.240026772770E+02    0.14553E+00   -0.16327E-01    64   0.288E+00    0.227E-01
RMM:   9    -0.239970731411E+02    0.56041E-02   -0.10965E-02    64   0.695E-01    0.194E-01
RMM:  10    -0.239908578058E+02    0.62153E-02   -0.23841E-02    64   0.841E-01    0.272E-01
RMM:  11    -0.239916617469E+02   -0.80394E-03   -0.80905E-03    64   0.560E-01    0.870E-02
RMM:  12    -0.240010401775E+02   -0.93784E-02   -0.31764E-03    64   0.346E-01    0.119E-01
RMM:  13    -0.240015720329E+02   -0.53186E-03   -0.94483E-04    64   0.170E-01    0.460E-02
RMM:  14    -0.240044470356E+02   -0.28750E-02   -0.12965E-03    64   0.220E-01    0.297E-02
RMM:  15    -0.240046827648E+02   -0.23573E-03   -0.39316E-05    64   0.403E-02    0.178E-02
RMM:  16    -0.240049010341E+02   -0.21827E-03   -0.12617E-04    64   0.657E-02    0.845E-03
RMM:  17    -0.240049336651E+02   -0.32631E-04   -0.28917E-05    64   0.307E-02    0.393E-03
RMM:  18    -0.240049461537E+02   -0.12489E-04   -0.20160E-06    48   0.928E-03    0.836E-04
RMM:  19    -0.240049499679E+02   -0.38141E-05   -0.14172E-06    48   0.758E-03    0.878E-04
RMM:  20    -0.240049510109E+02   -0.10430E-05   -0.23395E-07    48   0.371E-03    0.343E-04
RMM:  21    -0.240049515691E+02   -0.55820E-06    0.00000E+00    32   0.156E-03
    1 T=     1. E= -.24004601E+02 F= -.24004952E+02 E0= -.24004952E+02  EK= 0.35087E-03 SP= 0.00E+00 SK= 0.00E+00
       N       E                     dE             d eps       ncg     rms          rms(c)
DAV:   1    -0.240076678458E+02   -0.27168E-02   -0.28447E-03    64   0.526E-01    0.213E-02
RMM:   2    -0.240076697380E+02   -0.18922E-05   -0.88718E-05    64   0.822E-02    0.143E-02
RMM:   3    -0.240076688335E+02    0.90443E-06   -0.11624E-05    64   0.272E-02    0.280E-03
RMM:   4    -0.240076687112E+02    0.12236E-06   -0.34360E-07    48   0.601E-03
    2 T=     6. E= -.24004651E+02 F= -.24007669E+02 E0= -.24007669E+02  EK= 0.30179E-02 SP= 0.00E+00 SK= 0.00E+00
       N       E                     dE             d eps       ncg     rms          rms(c)
DAV:   1    -0.240123187951E+02   -0.46500E-02   -0.23996E-03    64   0.499E-01    0.826E-03
RMM:   2    -0.240123325907E+02   -0.13796E-04   -0.13978E-04    64   0.103E-01    0.277E-03
RMM:   3    -0.240123337654E+02   -0.11747E-05   -0.50247E-06    56   0.194E-02    0.250E-03
RMM:   4    -0.240123341220E+02   -0.35655E-06   -0.57276E-07    48   0.759E-03
    3 T=    15. E= -.24004733E+02 F= -.24012334E+02 E0= -.24012334E+02  EK= 0.76014E-02 SP= 0.00E+00 SK= 0.00E+00
       N       E                     dE             d eps       ncg     rms          rms(c)
DAV:   1    -0.240176402405E+02   -0.53065E-02   -0.75467E-04    64   0.251E-01    0.501E-03
RMM:   2    -0.240176424872E+02   -0.22468E-05   -0.23228E-05    64   0.402E-02    0.458E-03
RMM:   3    -0.240176424762E+02    0.11003E-07   -0.13499E-06    48   0.938E-03    0.269E-03
RMM:   4    -0.240176431793E+02   -0.70307E-06   -0.12552E-06    48   0.814E-03
    4 T=    25. E= -.24004829E+02 F= -.24017643E+02 E0= -.24017643E+02  EK= 0.12814E-01 SP= 0.00E+00 SK= 0.00E+00
       N       E                     dE             d eps       ncg     rms          rms(c)
DAV:   1    -0.240221065488E+02   -0.44641E-02   -0.10872E-03    64   0.309E-01    0.274E-03
RMM:   2    -0.240221108035E+02   -0.42547E-05   -0.12975E-05    64   0.292E-02    0.182E-03
RMM:   3    -0.240221125529E+02   -0.17494E-05   -0.41364E-07    48   0.603E-03    0.133E-03
RMM:   4    -0.240221174511E+02   -0.48983E-05   -0.70467E-07    48   0.533E-03    0.546E-04
RMM:   5    -0.240221190769E+02   -0.16258E-05   -0.81899E-08    44   0.233E-03    0.273E-04
RMM:   6    -0.240221243695E+02   -0.52926E-05   -0.56295E-07    48   0.386E-03    0.545E-04
RMM:   7    -0.240221244094E+02   -0.39886E-07   -0.21054E-08    36   0.156E-03
    5 T=    33. E= -.24004905E+02 F= -.24022124E+02 E0= -.24022124E+02  EK= 0.17220E-01 SP= 0.00E+00 SK= 0.00E+00
       N       E                     dE             d eps       ncg     rms          rms(c)
DAV:   1    -0.240245941294E+02   -0.24698E-02   -0.12254E-03    72   0.337E-01    0.592E-03
RMM:   2    -0.240245976604E+02   -0.35310E-05   -0.18214E-05    64   0.373E-02    0.431E-03
RMM:   3    -0.240245998037E+02   -0.21433E-05   -0.24597E-06    52   0.107E-02    0.127E-03
RMM:   4    -0.240246017098E+02   -0.19061E-05   -0.58309E-07    48   0.635E-03    0.542E-04
RMM:   5    -0.240246037675E+02   -0.20576E-05   -0.16092E-07    48   0.327E-03    0.250E-04
RMM:   6    -0.240246053107E+02   -0.15432E-05   -0.15384E-07    44   0.253E-03    0.249E-04
RMM:   7    -0.240246057335E+02   -0.42282E-06   -0.21200E-08    38   0.170E-03
    6 T=    38. E= -.24004941E+02 F= -.24024606E+02 E0= -.24024606E+02  EK= 0.19664E-01 SP= 0.00E+00 SK= 0.00E+00
       N       E                     dE             d eps       ncg     rms          rms(c)
DAV:   1    -0.240245474295E+02    0.57881E-04   -0.12363E-03    64   0.348E-01    0.610E-03
RMM:   2    -0.240245495955E+02   -0.21661E-05   -0.11084E-05    64   0.307E-02    0.338E-03
RMM:   3    -0.240245528590E+02   -0.32634E-05   -0.35289E-06    60   0.120E-02    0.979E-04
RMM:   4    -0.240245537259E+02   -0.86691E-06   -0.17090E-07    48   0.341E-03
    7 T=    38. E= -.24004918E+02 F= -.24024554E+02 E0= -.24024554E+02  EK= 0.19636E-01 SP= 0.00E+00 SK= 0.00E+00
       N       E                     dE             d eps       ncg     rms          rms(c)
DAV:   1    -0.240222878810E+02    0.22650E-02   -0.10116E-03    72   0.323E-01    0.152E-03
RMM:   2    -0.240222905620E+02   -0.26809E-05   -0.84571E-06    63   0.335E-02    0.133E-03
RMM:   3    -0.240222914043E+02   -0.84231E-06   -0.19596E-07    48   0.372E-03    0.109E-03
RMM:   4    -0.240222950027E+02   -0.35984E-05   -0.21023E-07    48   0.320E-03    0.341E-04
RMM:   5    -0.240222951669E+02   -0.16423E-06    0.00000E+00    32   0.148E-03
    8 T=    34. E= -.24004854E+02 F= -.24022295E+02 E0= -.24022295E+02  EK= 0.17441E-01 SP= 0.00E+00 SK= 0.00E+00
       N       E                     dE             d eps       ncg     rms          rms(c)
DAV:   1    -0.240188710818E+02    0.34239E-02   -0.70936E-04    88   0.280E-01    0.720E-03
RMM:   2    -0.240188726118E+02   -0.15300E-05   -0.16133E-05    64   0.434E-02    0.327E-03
RMM:   3    -0.240188749339E+02   -0.23221E-05   -0.39693E-06    60   0.130E-02    0.103E-03
RMM:   4    -0.240188759630E+02   -0.10291E-05   -0.16573E-07    48   0.368E-03    0.738E-04
RMM:   5    -0.240188782425E+02   -0.22796E-05   -0.16238E-07    48   0.270E-03    0.656E-04
RMM:   6    -0.240188797534E+02   -0.15109E-05   -0.14550E-08    36   0.165E-03    0.338E-04
RMM:   7    -0.240188805311E+02   -0.77768E-06   -0.22505E-07    48   0.270E-03
    9 T=    27. E= -.24004765E+02 F= -.24018881E+02 E0= -.24018881E+02  EK= 0.14115E-01 SP= 0.00E+00 SK= 0.00E+00
       N       E                     dE             d eps       ncg     rms          rms(c)
DAV:   1    -0.240157491636E+02    0.31306E-02   -0.34184E-04    80   0.220E-01    0.330E-03
RMM:   2    -0.240157498236E+02   -0.65996E-06   -0.74226E-06    62   0.313E-02    0.159E-03
RMM:   3    -0.240157501288E+02   -0.30516E-06   -0.39962E-07    48   0.485E-03    0.798E-04
RMM:   4    -0.240157504853E+02   -0.35657E-06   -0.12694E-07    48   0.308E-03
   10 T=    21. E= -.24004682E+02 F= -.24015750E+02 E0= -.24015750E+02  EK= 0.11069E-01 SP= 0.00E+00 SK= 0.00E+00
