 vasp.5.4.4.18Apr17-6-g9f103f2a35 (build Nov 25 2021 15:25:00) complex          
  
 executed on             LinuxIFC date 2022.02.21  10:17:09
 running on   16 total cores
 distrk:  each k-point on   16 cores,    1 groups
 distr:  one band on NCORES_PER_BAND=   4 cores,    4 groups


--------------------------------------------------------------------------------------------------------


 INCAR:
 POTCAR:    PAW_PBE H 15Jun2001                   
 POTCAR:    PAW_PBE C 08Apr2002                   
 POTCAR:    PAW_PBE H 15Jun2001                   
   VRHFIN =H: ultrasoft test                                                    
   LEXCH  = PE                                                                  
   EATOM  =    12.4884 eV,    0.9179 Ry                                         
                                                                                
   TITEL  = PAW_PBE H 15Jun2001                                                 
   LULTRA =        F    use ultrasoft PP ?                                      
   IUNSCR =        0    unscreen: 0-lin 1-nonlin 2-no                           
   RPACOR =    0.000    partial core radius                                     
   POMASS =    1.000; ZVAL   =    1.000    mass and valenz                      
   RCORE  =    1.100    outmost cutoff radius                                   
   RWIGS  =    0.700; RWIGS  =    0.370    wigner-seitz radius (au A)           
   ENMAX  =  250.000; ENMIN  =  200.000 eV                                      
   RCLOC  =    0.701    cutoff for local pot                                    
   LCOR   =        T    correct aug charges                                     
   LPAW   =        T    paw PP                                                  
   EAUG   =  400.000                                                            
   RMAX   =    1.123    core radius for proj-oper                               
   RAUG   =    1.200    factor for augmentation sphere                          
   RDEP   =    1.112    radius for radial grids                                 
   RDEPT  =    0.926    core radius for aug-charge                              
                                                                                
   Atomic configuration                                                         
    2 entries                                                                   
     n  l   j            E        occ.                                          
     1  0  0.50        -6.4927   1.0000                                         
     2  1  0.50        -3.4015   0.0000                                         
   Description                                                                  
     l       E           TYP  RCUT    TYP  RCUT                                 
     0     -6.4927494     23  1.100                                             
     0      6.8029130     23  1.100                                             
     1     -4.0817478     23  1.100                                             
  local pseudopotential read in
  atomic valenz-charges read in
  non local Contribution for L=           0  read in
    real space projection operators read in
  non local Contribution for L=           0  read in
    real space projection operators read in
  non local Contribution for L=           1  read in
    real space projection operators read in
    PAW grid and wavefunctions read in
 
   number of l-projection  operators is LMAX  =           3
   number of lm-projection operators is LMMAX =           5
 
 POTCAR:    PAW_PBE C 08Apr2002                   
   VRHFIN =C: s2p2                                                              
   LEXCH  = PE                                                                  
   EATOM  =   147.1560 eV,   10.8157 Ry                                         
                                                                                
   TITEL  = PAW_PBE C 08Apr2002                                                 
   LULTRA =        F    use ultrasoft PP ?                                      
   IUNSCR =        1    unscreen: 0-lin 1-nonlin 2-no                           
   RPACOR =    1.200    partial core radius                                     
   POMASS =   12.011; ZVAL   =    4.000    mass and valenz                      
   RCORE  =    1.500    outmost cutoff radius                                   
   RWIGS  =    1.630; RWIGS  =    0.863    wigner-seitz radius (au A)           
   ENMAX  =  400.000; ENMIN  =  300.000 eV                                      
   ICORE  =        2    local potential                                         
   LCOR   =        T    correct aug charges                                     
   LPAW   =        T    paw PP                                                  
   EAUG   =  644.873                                                            
   DEXC   =    0.000                                                            
   RMAX   =    1.529    core radius for proj-oper                               
   RAUG   =    1.300    factor for augmentation sphere                          
   RDEP   =    1.501    radius for radial grids                                 
   RDEPT  =    1.300    core radius for aug-charge                              
                                                                                
   Atomic configuration                                                         
    4 entries                                                                   
     n  l   j            E        occ.                                          
     1  0  0.50      -273.3789   2.0000                                         
     2  0  0.50       -13.7508   2.0000                                         
     2  1  0.50        -5.2854   2.0000                                         
     3  2  1.50        -5.4423   0.0000                                         
   Description                                                                  
     l       E           TYP  RCUT    TYP  RCUT                                 
     0    -13.7508458     23  1.200                                             
     0     -8.2022199     23  1.200                                             
     1     -5.2854383     23  1.500                                             
     1     34.0145650     23  1.500                                             
     2     -5.4423304      7  1.500                                             
  local pseudopotential read in
  partial core-charges read in
  partial kinetic energy density read in
  atomic valenz-charges read in
  non local Contribution for L=           0  read in
    real space projection operators read in
  non local Contribution for L=           0  read in
    real space projection operators read in
  non local Contribution for L=           1  read in
    real space projection operators read in
  non local Contribution for L=           1  read in
    real space projection operators read in
    PAW grid and wavefunctions read in
 
   number of l-projection  operators is LMAX  =           4
   number of lm-projection operators is LMMAX =           8
 
  PAW_PBE H 15Jun2001                   :
 energy of atom  1       EATOM=  -12.4884
 kinetic energy error for atom=    0.0098 (will be added to EATOM!!)
  PAW_PBE C 08Apr2002                   :
 energy of atom  2       EATOM= -147.1560
 kinetic energy error for atom=    0.0288 (will be added to EATOM!!)
 
 
 POSCAR:  H  C                                   
  positions in cartesian coordinates
  No initial velocities read in
 exchange correlation table for  LEXCH =        8
   RHO(1)=    0.500       N(1)  =     2000
   RHO(2)=  100.500       N(2)  =     4000

 VTST: version 3.2, (02/03/18)

 CHAIN: initializing optimizer
 
 OPT: Using VASP Dynamics algorithm
 CHAIN: Read ICHAIN            0
 
 POSCAR:  H  C                                   
  positions in cartesian coordinates
  No initial velocities read in
 


--------------------------------------------------------------------------------------------------------


 ion  position               nearest neighbor table
   1  0.538  0.407  0.361-   5 1.08
   2  0.395  0.480  0.438-   5 1.09
   3  0.552  0.566  0.443-   5 1.11
   4  0.528  0.416  0.539-   5 1.12
   5  0.503  0.467  0.445-   1 1.08   2 1.09   3 1.11   4 1.12
 

IMPORTANT INFORMATION: All symmetrisations will be switched off!
NOSYMM: (Re-)initialisation of all symmetry stuff for point group C_1.

 
 

Automatic generation of k-mesh.
 generate k-points for:    2    2    2
Space group operators:
 irot       det(A)        alpha          n_x          n_y          n_z        tau_x        tau_y        tau_z
    1     1.000000     0.000001     1.000000     0.000000     0.000000     0.000000     0.000000     0.000000
 
 Subroutine IBZKPT returns following result:
 ===========================================
 
 Found      4 irreducible k-points:
 
 Following reciprocal coordinates:
            Coordinates               Weight
  0.250000  0.250000  0.250000      2.000000
 -0.250000  0.250000  0.250000      2.000000
  0.250000 -0.250000  0.250000      2.000000
 -0.250000 -0.250000  0.250000      2.000000
 
 Following cartesian coordinates:
            Coordinates               Weight
  0.024847  0.024842  0.025074      2.000000
 -0.024847  0.026289  0.025227      2.000000
  0.024847 -0.026289  0.023598      2.000000
 -0.024847 -0.024842  0.023750      2.000000
 


--------------------------------------------------------------------------------------------------------




 Dimension of arrays:
   k-points           NKPTS =      4   k-points in BZ     NKDIM =      4   number of bands    NBANDS=      8
   number of dos      NEDOS =    301   number of ions     NIONS =      5
   non local maximal  LDIM  =      4   non local SUM 2l+1 LMDIM =      8
   total plane-waves  NPLWV = 313600
   max r-space proj   IRMAX =      1   max aug-charges    IRDMAX=   3872
   dimension x,y,z NGX =    70 NGY =   64 NGZ =   70
   dimension x,y,z NGXF=   140 NGYF=  128 NGZF=  140
   support grid    NGXF=   140 NGYF=  128 NGZF=  140
   ions per type =               4   1
   NGX,Y,Z   is equivalent  to a cutoff of  11.57, 10.88, 11.36 a.u.
   NGXF,Y,Z  is equivalent  to a cutoff of  23.13, 21.75, 22.72 a.u.

 SYSTEM =  unknown system                          
 POSCAR =   H  C                                   

 Startparameter for this run:
   NWRITE =      2    write-flag & timer
   PREC   = a         normal or accurate (medium, high low for compatibility)
   ISTART =      0    job   : 0-new  1-cont  2-samecut
   ICHARG =      2    charge: 1-file 2-atom 10-const
   ISPIN  =      1    spin polarized calculation?
   LNONCOLLINEAR =      F non collinear calculations
   LSORBIT =      F    spin-orbit coupling
   INIWAV =      1    electr: 0-lowe 1-rand  2-diag
   LASPH  =      F    aspherical Exc in radial PAW
   METAGGA=      F    non-selfconsistent MetaGGA calc.

 Electronic Relaxation 1
   ENCUT  =  400.0 eV  29.40 Ry    5.42 a.u.  16.41 15.95 16.71*2*pi/ulx,y,z
   ENINI  =  400.0     initial cutoff
   ENAUG  =  644.9 eV  augmentation charge cutoff
   NELM   =    120;   NELMIN=  4; NELMDL= -5     # of ELM steps 
   EDIFF  = 0.1E-05   stopping-criterion for ELM
   LREAL  =      F    real-space projection
   NLSPLINE    = F    spline interpolate recip. space projectors
   LCOMPAT=      F    compatible to vasp.4.4
   GGA_COMPAT  = T    GGA compatible to vasp.4.4-vasp.4.6
   LMAXPAW     = -100 max onsite density
   LMAXMIX     =    2 max onsite mixed and CHGCAR
   VOSKOWN=      0    Vosko Wilk Nusair interpolation
   ROPT   =    0.00000   0.00000
 Ionic relaxation
   EDIFFG = 0.1E-04   stopping-criterion for IOM
   NSW    =     10    number of steps for IOM
   NBLOCK =      1;   KBLOCK =     10    inner block; outer block 
   IBRION =      0    ionic relax: 0-MD 1-quasi-New 2-CG
   NFREE  =      0    steps in history (QN), initial steepest desc. (CG)
   ISIF   =      2    stress and relaxation
   IWAVPR =     12    prediction:  0-non 1-charg 2-wave 3-comb
   ISYM   =      0    0-nonsym 1-usesym 2-fastsym
   LCORR  =      T    Harris-Foulkes like correction to forces

   POTIM  = 0.5000    time-step for ionic-motion
   TEIN   =    0.0    initial temperature
   TEBEG  =    0.0;   TEEND  =   0.0 temperature during run
   SMASS  =  -3.00    Nose mass-parameter (am)
   estimated Nose-frequenzy (Omega)   =  0.10E-29 period in steps =****** mass=  -0.231E-26a.u.
   SCALEE = 1.0000    scale energy and forces
   NPACO  =    256;   APACO  = 16.0  distance and # of slots for P.C.
   PSTRESS=    0.0 pullay stress

  Mass of Ions in am
   POMASS =   1.00 12.01
  Ionic Valenz
   ZVAL   =   1.00  4.00
  Atomic Wigner-Seitz radii
   RWIGS  =  -1.00 -1.00
  virtual crystal weights 
   VCA    =   1.00  1.00
   NELECT =       8.0000    total number of electrons
   NUPDOWN=      -1.0000    fix difference up-down

 DOS related values:
   EMIN   =  10.00;   EMAX   =-10.00  energy-range for DOS
   EFERMI =   0.00
   ISMEAR =     0;   SIGMA  =   0.20  broadening in eV -4-tet -1-fermi 0-gaus

 Electronic relaxation 2 (details)
   IALGO  =     68    algorithm
   LDIAG  =      T    sub-space diagonalisation (order eigenvalues)
   LSUBROT=      F    optimize rotation matrix (better conditioning)
   TURBO    =      0    0=normal 1=particle mesh
   IRESTART =      0    0=no restart 2=restart with 2 vectors
   NREBOOT  =      0    no. of reboots
   NMIN     =      0    reboot dimension
   EREF     =   0.00    reference energy to select bands
   IMIX   =      4    mixing-type and parameters
     AMIX     =   0.40;   BMIX     =  1.00
     AMIX_MAG =   1.60;   BMIX_MAG =  1.00
     AMIN     =   0.10
     WC   =   100.;   INIMIX=   1;  MIXPRE=   1;  MAXMIX= -45

 Intra band minimization:
   WEIMIN = 0.0010     energy-eigenvalue tresh-hold
   EBREAK =  0.31E-07  absolut break condition
   DEPER  =   0.30     relativ break condition  

   TIME   =   0.40     timestep for ELM

  volume/ion in A,a.u.               =     201.52      1359.89
  Fermi-wavevector in a.u.,A,eV,Ry     =   0.326597  0.617179  1.451272  0.106665
  Thomas-Fermi vector in A             =   1.218596
 
 Write flags
   LWAVE        =      F    write WAVECAR
   LDOWNSAMPLE  =      F    k-point downsampling of WAVECAR
   LCHARG       =      F    write CHGCAR
   LVTOT        =      F    write LOCPOT, total local potential
   LVHAR        =      F    write LOCPOT, Hartree potential only
   LELF         =      F    write electronic localiz. function (ELF)
   LORBIT       =      0    0 simple, 1 ext, 2 COOP (PROOUT), +10 PAW based schemes


 Dipole corrections
   LMONO  =      F    monopole corrections only (constant potential shift)
   LDIPOL =      F    correct potential (dipole corrections)
   IDIPOL =      0    1-x, 2-y, 3-z, 4-all directions 
   EPSILON=  1.0000000 bulk dielectric constant

 Exchange correlation treatment:
   GGA     =    --    GGA type
   LEXCH   =     8    internal setting for exchange type
   VOSKOWN=      0    Vosko Wilk Nusair interpolation
   LHFCALC =     F    Hartree Fock is set to
   LHFONE  =     F    Hartree Fock one center treatment
   AEXX    =    0.0000 exact exchange contribution

 Linear response parameters
   LEPSILON=     F    determine dielectric tensor
   LRPA    =     F    only Hartree local field effects (RPA)
   LNABLA  =     F    use nabla operator in PAW spheres
   LVEL    =     F    velocity operator in full k-point grid
   LINTERFAST=   F  fast interpolation
   KINTER  =     0    interpolate to denser k-point grid
   CSHIFT  =0.1000    complex shift for real part using Kramers Kronig
   OMEGAMAX=  -1.0    maximum frequency
   DEG_THRESHOLD= 0.2000000E-02 threshold for treating states as degnerate
   RTIME   =   -0.100 relaxation time in fs
  (WPLASMAI=    0.000 imaginary part of plasma frequency in eV, 0.658/RTIME)
   DFIELD  = 0.0000000 0.0000000 0.0000000 field for delta impulse in time
 
 Orbital magnetization related:
   ORBITALMAG=     F  switch on orbital magnetization
   LCHIMAG   =     F  perturbation theory with respect to B field
   DQ        =  0.001000  dq finite difference perturbation B field
   LLRAUG    =     F  two centre corrections for induced B field



--------------------------------------------------------------------------------------------------------


 molecular dynamics for ions
   using a microcanonical ensemble
 charge density and potential will be updated during run
 non-spin polarized calculation
 RMM-DIIS sequential band-by-band and
  variant of blocked Davidson during initial phase
 perform sub-space diagonalisation
    before iterative eigenvector-optimisation
 modified Broyden-mixing scheme, WC =      100.0
 initial mixing is a Kerker type mixing with AMIX =  0.4000 and BMIX =      1.0000
 Hartree-type preconditioning will be used
 using additional bands            4
 reciprocal scheme for non local part
 use partial core corrections
 calculate Harris-corrections to forces 
   (improved forces if not selfconsistent)
 use gradient corrections 
 use of overlap-Matrix (Vanderbilt PP)
 Gauss-broadening in eV      SIGMA  =   0.20


--------------------------------------------------------------------------------------------------------


  energy-cutoff  :      400.00
  volume of cell :     1007.58
      direct lattice vectors                 reciprocal lattice vectors
    10.061477372  0.000000000  0.000000000     0.099388983 -0.002893883 -0.000305595
     0.284728382  9.778854293  0.000000000     0.000000000  0.102261468  0.002953604
     0.022875236 -0.295780155 10.240681013     0.000000000  0.000000000  0.097649756

  length of vectors
    10.061477372  9.782998596 10.244977149     0.099431574  0.102304114  0.097649756


 
 k-points in units of 2pi/SCALE and weight: read from INCAR                         
   0.02484725  0.02484190  0.02507444       0.250
  -0.02484725  0.02628884  0.02522724       0.250
   0.02484725 -0.02628884  0.02359764       0.250
  -0.02484725 -0.02484190  0.02375044       0.250
 
 k-points in reciprocal lattice and weights: read from INCAR                         
   0.25000000  0.25000000  0.25000000       0.250
  -0.25000000  0.25000000  0.25000000       0.250
   0.25000000 -0.25000000  0.25000000       0.250
  -0.25000000 -0.25000000  0.25000000       0.250
 
 position of ions in fractional coordinates (direct lattice) 
   0.53799974  0.40701335  0.36062238
   0.39485185  0.47995949  0.43812088
   0.55219073  0.56619739  0.44310957
   0.52775671  0.41612066  0.53900924
   0.50282285  0.46675655  0.44493211
 
 position of ions in cartesian coordinates  (Angst):
   5.53720974  3.87345932  3.69301874
   4.11947317  4.56386650  4.48665617
   5.72720322  5.40569878  4.53774378
   5.44082351  3.90975509  5.51982169
   5.20221750  4.43274216  4.55640780
 


--------------------------------------------------------------------------------------------------------


 k-point  1 :   0.2500 0.2500 0.2500  plane waves:   18323
 k-point  2 :  -0.2500 0.2500 0.2500  plane waves:   18312
 k-point  3 :   0.2500-0.2500 0.2500  plane waves:   18290
 k-point  4 :  -0.2500-0.2500 0.2500  plane waves:   18290

 maximum and minimum number of plane-waves per node :      4606     4553

 maximum number of plane-waves:     18323
 maximum index in each direction: 
   IXMAX=   16   IYMAX=   16   IZMAX=   16
   IXMIN=  -16   IYMIN=  -16   IZMIN=  -16


 parallel 3D FFT for wavefunctions:
    minimum data exchange during FFTs selected (reduces bandwidth)
 parallel 3D FFT for charge:
    minimum data exchange during FFTs selected (reduces bandwidth)


 total amount of memory used by VASP MPI-rank0    53538. kBytes
=======================================================================

   base      :      30000. kBytes
   nonl-proj :       2727. kBytes
   fftplans  :       7847. kBytes
   grid      :      12367. kBytes
   one-center:          6. kBytes
   wavefun   :        591. kBytes
 
     INWAV:  cpu time    0.0000: real time    0.0001
 Broyden mixing: mesh for mixing (old mesh)
   NGX = 33   NGY = 31   NGZ = 33
  (NGX  =140   NGY  =128   NGZ  =140)
  gives a total of  33759 points

 initial charge density was supplied:
 charge density of overlapping atoms calculated
 number of electron       8.0000000 magnetization 
 keeping initial charge density in first step


--------------------------------------------------------------------------------------------------------


 Maximum index for augmentation-charges          159 (set IRDMAX)


--------------------------------------------------------------------------------------------------------


 First call to EWALD:  gamma=   0.177
 Maximum number of real-space cells 3x 3x 3
 Maximum number of reciprocal cells 3x 3x 3

    FEWALD:  cpu time    0.0022: real time    0.0023


--------------------------------------- Iteration      1(   1)  ---------------------------------------


    POTLOK:  cpu time    0.1573: real time    0.1702
    SETDIJ:  cpu time    0.0035: real time    0.0043
     EDDAV:  cpu time    0.2064: real time    0.2387
       DOS:  cpu time    0.0004: real time    0.0013
    --------------------------------------------
      LOOP:  cpu time    0.3677: real time    0.4145

 eigenvalue-minimisations  :    96
 total energy-change (2. order) : 0.1186048E+02  (-0.2059894E+03)
 number of electron       8.0000000 magnetization 
 augmentation part        8.0000000 magnetization 

 Free energy of the ion-electron system (eV)
  ---------------------------------------------------
  alpha Z        PSCENC =         0.24042888
  Ewald energy   TEWEN  =       128.27113805
  -Hartree energ DENC   =      -243.90871399
  -exchange      EXHF   =         0.00000000
  -V(xc)+E(xc)   XCENC  =        21.98982600
  PAW double counting   =       117.05815612     -117.66307307
  entropy T*S    EENTRO =        -0.00000000
  eigenvalues    EBANDS =       -91.16904108
  atomic energy  EATOM  =       197.04175453
  Solvation  Ediel_sol  =         0.00000000
  ---------------------------------------------------
  free energy    TOTEN  =        11.86047545 eV

  energy without entropy =       11.86047545  energy(sigma->0) =       11.86047545


--------------------------------------------------------------------------------------------------------




--------------------------------------- Iteration      1(   2)  ---------------------------------------


     EDDAV:  cpu time    0.1642: real time    0.1683
       DOS:  cpu time    0.0002: real time    0.0002
    --------------------------------------------
      LOOP:  cpu time    0.1644: real time    0.1685

 eigenvalue-minimisations  :    72
 total energy-change (2. order) :-0.3585112E+02  (-0.3585112E+02)
 number of electron       8.0000000 magnetization 
 augmentation part        8.0000000 magnetization 

 Free energy of the ion-electron system (eV)
  ---------------------------------------------------
  alpha Z        PSCENC =         0.24042888
  Ewald energy   TEWEN  =       128.27113805
  -Hartree energ DENC   =      -243.90871399
  -exchange      EXHF   =         0.00000000
  -V(xc)+E(xc)   XCENC  =        21.98982600
  PAW double counting   =       117.05815612     -117.66307307
  entropy T*S    EENTRO =        -0.00000000
  eigenvalues    EBANDS =      -127.02016375
  atomic energy  EATOM  =       197.04175453
  Solvation  Ediel_sol  =         0.00000000
  ---------------------------------------------------
  free energy    TOTEN  =       -23.99064722 eV

  energy without entropy =      -23.99064722  energy(sigma->0) =      -23.99064722


--------------------------------------------------------------------------------------------------------




--------------------------------------- Iteration      1(   3)  ---------------------------------------


     EDDAV:  cpu time    0.1495: real time    0.1535
       DOS:  cpu time    0.0002: real time    0.0002
    --------------------------------------------
      LOOP:  cpu time    0.1497: real time    0.1537

 eigenvalue-minimisations  :    64
 total energy-change (2. order) :-0.3373413E+01  (-0.3373413E+01)
 number of electron       8.0000000 magnetization 
 augmentation part        8.0000000 magnetization 

 Free energy of the ion-electron system (eV)
  ---------------------------------------------------
  alpha Z        PSCENC =         0.24042888
  Ewald energy   TEWEN  =       128.27113805
  -Hartree energ DENC   =      -243.90871399
  -exchange      EXHF   =         0.00000000
  -V(xc)+E(xc)   XCENC  =        21.98982600
  PAW double counting   =       117.05815612     -117.66307307
  entropy T*S    EENTRO =        -0.00000000
  eigenvalues    EBANDS =      -130.39357627
  atomic energy  EATOM  =       197.04175453
  Solvation  Ediel_sol  =         0.00000000
  ---------------------------------------------------
  free energy    TOTEN  =       -27.36405974 eV

  energy without entropy =      -27.36405974  energy(sigma->0) =      -27.36405974


--------------------------------------------------------------------------------------------------------




--------------------------------------- Iteration      1(   4)  ---------------------------------------


     EDDAV:  cpu time    0.2469: real time    0.2531
       DOS:  cpu time    0.0004: real time    0.0004
    --------------------------------------------
      LOOP:  cpu time    0.2472: real time    0.2534

 eigenvalue-minimisations  :   128
 total energy-change (2. order) :-0.1223543E+00  (-0.1223543E+00)
 number of electron       8.0000000 magnetization 
 augmentation part        8.0000000 magnetization 

 Free energy of the ion-electron system (eV)
  ---------------------------------------------------
  alpha Z        PSCENC =         0.24042888
  Ewald energy   TEWEN  =       128.27113805
  -Hartree energ DENC   =      -243.90871399
  -exchange      EXHF   =         0.00000000
  -V(xc)+E(xc)   XCENC  =        21.98982600
  PAW double counting   =       117.05815612     -117.66307307
  entropy T*S    EENTRO =        -0.00000000
  eigenvalues    EBANDS =      -130.51593054
  atomic energy  EATOM  =       197.04175453
  Solvation  Ediel_sol  =         0.00000000
  ---------------------------------------------------
  free energy    TOTEN  =       -27.48641401 eV

  energy without entropy =      -27.48641401  energy(sigma->0) =      -27.48641401


--------------------------------------------------------------------------------------------------------




--------------------------------------- Iteration      1(   5)  ---------------------------------------


     EDDAV:  cpu time    0.1850: real time    0.1908
       DOS:  cpu time    0.0002: real time    0.0002
    CHARGE:  cpu time    0.0209: real time    0.0215
    MIXING:  cpu time    0.0041: real time    0.0043
    --------------------------------------------
      LOOP:  cpu time    0.2102: real time    0.2168

 eigenvalue-minimisations  :    88
 total energy-change (2. order) :-0.3249552E-04  (-0.3249553E-04)
 number of electron       8.0000002 magnetization 
 augmentation part        0.2240161 magnetization 

 Broyden mixing:
  rms(total) = 0.86566E+00    rms(broyden)= 0.86542E+00
  rms(prec ) = 0.12207E+01
  weight for this iteration     100.00

 Free energy of the ion-electron system (eV)
  ---------------------------------------------------
  alpha Z        PSCENC =         0.24042888
  Ewald energy   TEWEN  =       128.27113805
  -Hartree energ DENC   =      -243.90871399
  -exchange      EXHF   =         0.00000000
  -V(xc)+E(xc)   XCENC  =        21.98982600
  PAW double counting   =       117.05815612     -117.66307307
  entropy T*S    EENTRO =        -0.00000000
  eigenvalues    EBANDS =      -130.51596303
  atomic energy  EATOM  =       197.04175453
  Solvation  Ediel_sol  =         0.00000000
  ---------------------------------------------------
  free energy    TOTEN  =       -27.48644650 eV

  energy without entropy =      -27.48644650  energy(sigma->0) =      -27.48644650


--------------------------------------------------------------------------------------------------------




--------------------------------------- Iteration      1(   6)  ---------------------------------------


    POTLOK:  cpu time    0.1525: real time    0.1561
    SETDIJ:  cpu time    0.0018: real time    0.0018
    EDDIAG:  cpu time    0.0434: real time    0.0538
  RMM-DIIS:  cpu time    0.1618: real time    0.1630
    ORTHCH:  cpu time    0.0022: real time    0.0022
       DOS:  cpu time    0.0002: real time    0.0002
    CHARGE:  cpu time    0.0194: real time    0.0196
    MIXING:  cpu time    0.0047: real time    0.0062
    --------------------------------------------
      LOOP:  cpu time    0.3860: real time    0.4029

 eigenvalue-minimisations  :    64
 total energy-change (2. order) : 0.2854169E+01  (-0.5267407E+00)
 number of electron       8.0000001 magnetization 
 augmentation part        0.1974252 magnetization 

 Broyden mixing:
  rms(total) = 0.42682E+00    rms(broyden)= 0.42671E+00
  rms(prec ) = 0.55135E+00
  weight for this iteration     100.00

 eigenvalues of (default mixing * dielectric matrix)
  average eigenvalue GAMMA=   1.3018
  1.3018

 Free energy of the ion-electron system (eV)
  ---------------------------------------------------
  alpha Z        PSCENC =         0.24042888
  Ewald energy   TEWEN  =       128.27113805
  -Hartree energ DENC   =      -263.49912457
  -exchange      EXHF   =         0.00000000
  -V(xc)+E(xc)   XCENC  =        23.17947453
  PAW double counting   =       237.25228985     -238.03017482
  entropy T*S    EENTRO =        -0.00000000
  eigenvalues    EBANDS =      -109.08806410
  atomic energy  EATOM  =       197.04175453
  Solvation  Ediel_sol  =         0.00000000
  ---------------------------------------------------
  free energy    TOTEN  =       -24.63227766 eV

  energy without entropy =      -24.63227766  energy(sigma->0) =      -24.63227766


--------------------------------------------------------------------------------------------------------




--------------------------------------- Iteration      1(   7)  ---------------------------------------


    POTLOK:  cpu time    0.1379: real time    0.1437
    SETDIJ:  cpu time    0.0018: real time    0.0018
    EDDIAG:  cpu time    0.0381: real time    0.0399
  RMM-DIIS:  cpu time    0.1534: real time    0.1582
    ORTHCH:  cpu time    0.0017: real time    0.0017
       DOS:  cpu time    0.0002: real time    0.0002
    CHARGE:  cpu time    0.0182: real time    0.0188
    MIXING:  cpu time    0.0044: real time    0.0044
    --------------------------------------------
      LOOP:  cpu time    0.3557: real time    0.3687

 eigenvalue-minimisations  :    64
 total energy-change (2. order) : 0.4840656E+00  (-0.1171967E+00)
 number of electron       8.0000001 magnetization 
 augmentation part        0.1870916 magnetization 

 Broyden mixing:
  rms(total) = 0.22724E+00    rms(broyden)= 0.22718E+00
  rms(prec ) = 0.27405E+00
  weight for this iteration     100.00

 eigenvalues of (default mixing * dielectric matrix)
  average eigenvalue GAMMA=   1.8405
  1.4512  2.2297

 Free energy of the ion-electron system (eV)
  ---------------------------------------------------
  alpha Z        PSCENC =         0.24042888
  Ewald energy   TEWEN  =       128.27113805
  -Hartree energ DENC   =      -275.01598715
  -exchange      EXHF   =         0.00000000
  -V(xc)+E(xc)   XCENC  =        24.02670472
  PAW double counting   =       361.77781255     -362.59379574
  entropy T*S    EENTRO =        -0.00000000
  eigenvalues    EBANDS =       -97.89626785
  atomic energy  EATOM  =       197.04175453
  Solvation  Ediel_sol  =         0.00000000
  ---------------------------------------------------
  free energy    TOTEN  =       -24.14821201 eV

  energy without entropy =      -24.14821201  energy(sigma->0) =      -24.14821201


--------------------------------------------------------------------------------------------------------




--------------------------------------- Iteration      1(   8)  ---------------------------------------


    POTLOK:  cpu time    0.1343: real time    0.1401
    SETDIJ:  cpu time    0.0020: real time    0.0021
    EDDIAG:  cpu time    0.0376: real time    0.0395
  RMM-DIIS:  cpu time    0.1513: real time    0.1594
    ORTHCH:  cpu time    0.0016: real time    0.0016
       DOS:  cpu time    0.0002: real time    0.0002
    CHARGE:  cpu time    0.0184: real time    0.0189
    MIXING:  cpu time    0.0044: real time    0.0045
    --------------------------------------------
      LOOP:  cpu time    0.3498: real time    0.3662

 eigenvalue-minimisations  :    64
 total energy-change (2. order) : 0.1455347E+00  (-0.1632696E-01)
 number of electron       8.0000001 magnetization 
 augmentation part        0.1857186 magnetization 

 Broyden mixing:
  rms(total) = 0.22678E-01    rms(broyden)= 0.22651E-01
  rms(prec ) = 0.52135E-01
  weight for this iteration     100.00

 eigenvalues of (default mixing * dielectric matrix)
  average eigenvalue GAMMA=   1.5467
  2.2474  0.9910  1.4017

 Free energy of the ion-electron system (eV)
  ---------------------------------------------------
  alpha Z        PSCENC =         0.24042888
  Ewald energy   TEWEN  =       128.27113805
  -Hartree energ DENC   =      -280.42760806
  -exchange      EXHF   =         0.00000000
  -V(xc)+E(xc)   XCENC  =        24.56290782
  PAW double counting   =       469.52018795     -470.30451223
  entropy T*S    EENTRO =        -0.00000000
  eigenvalues    EBANDS =       -92.90697422
  atomic energy  EATOM  =       197.04175453
  Solvation  Ediel_sol  =         0.00000000
  ---------------------------------------------------
  free energy    TOTEN  =       -24.00267728 eV

  energy without entropy =      -24.00267728  energy(sigma->0) =      -24.00267728


--------------------------------------------------------------------------------------------------------




--------------------------------------- Iteration      1(   9)  ---------------------------------------


    POTLOK:  cpu time    0.1369: real time    0.1404
    SETDIJ:  cpu time    0.0018: real time    0.0019
    EDDIAG:  cpu time    0.0362: real time    0.0415
  RMM-DIIS:  cpu time    0.1525: real time    0.1593
    ORTHCH:  cpu time    0.0015: real time    0.0015
       DOS:  cpu time    0.0002: real time    0.0002
    CHARGE:  cpu time    0.0189: real time    0.0197
    MIXING:  cpu time    0.0048: real time    0.0059
    --------------------------------------------
      LOOP:  cpu time    0.3529: real time    0.3704

 eigenvalue-minimisations  :    64
 total energy-change (2. order) : 0.5604136E-02  (-0.1096518E-02)
 number of electron       8.0000001 magnetization 
 augmentation part        0.1851543 magnetization 

 Broyden mixing:
  rms(total) = 0.19429E-01    rms(broyden)= 0.19425E-01
  rms(prec ) = 0.39951E-01
  weight for this iteration     100.00

 eigenvalues of (default mixing * dielectric matrix)
  average eigenvalue GAMMA=   2.0871
  1.0042  1.3689  2.9877  2.9877

 Free energy of the ion-electron system (eV)
  ---------------------------------------------------
  alpha Z        PSCENC =         0.24042888
  Ewald energy   TEWEN  =       128.27113805
  -Hartree energ DENC   =      -281.67418891
  -exchange      EXHF   =         0.00000000
  -V(xc)+E(xc)   XCENC  =        24.63136122
  PAW double counting   =       472.64467801     -473.43168015
  entropy T*S    EENTRO =        -0.00000000
  eigenvalues    EBANDS =       -91.72056479
  atomic energy  EATOM  =       197.04175453
  Solvation  Ediel_sol  =         0.00000000
  ---------------------------------------------------
  free energy    TOTEN  =       -23.99707314 eV

  energy without entropy =      -23.99707314  energy(sigma->0) =      -23.99707314


--------------------------------------------------------------------------------------------------------




--------------------------------------- Iteration      1(  10)  ---------------------------------------


    POTLOK:  cpu time    0.1287: real time    0.1356
    SETDIJ:  cpu time    0.0018: real time    0.0019
    EDDIAG:  cpu time    0.0379: real time    0.0391
  RMM-DIIS:  cpu time    0.1512: real time    0.1615
    ORTHCH:  cpu time    0.0017: real time    0.0017
       DOS:  cpu time    0.0002: real time    0.0002
    CHARGE:  cpu time    0.0178: real time    0.0184
    MIXING:  cpu time    0.0047: real time    0.0048
    --------------------------------------------
      LOOP:  cpu time    0.3441: real time    0.3632

 eigenvalue-minimisations  :    64
 total energy-change (2. order) : 0.6215335E-02  (-0.2384084E-02)
 number of electron       8.0000001 magnetization 
 augmentation part        0.1841293 magnetization 

 Broyden mixing:
  rms(total) = 0.27246E-01    rms(broyden)= 0.27245E-01
  rms(prec ) = 0.34708E-01
  weight for this iteration     100.00

 eigenvalues of (default mixing * dielectric matrix)
  average eigenvalue GAMMA=   1.7852
  3.0621  2.4113  0.9821  1.2352  1.2352

 Free energy of the ion-electron system (eV)
  ---------------------------------------------------
  alpha Z        PSCENC =         0.24042888
  Ewald energy   TEWEN  =       128.27113805
  -Hartree energ DENC   =      -283.84822601
  -exchange      EXHF   =         0.00000000
  -V(xc)+E(xc)   XCENC  =        24.70096398
  PAW double counting   =       457.07437342     -457.86475598
  entropy T*S    EENTRO =        -0.00000000
  eigenvalues    EBANDS =       -89.60653468
  atomic energy  EATOM  =       197.04175453
  Solvation  Ediel_sol  =         0.00000000
  ---------------------------------------------------
  free energy    TOTEN  =       -23.99085781 eV

  energy without entropy =      -23.99085781  energy(sigma->0) =      -23.99085781


--------------------------------------------------------------------------------------------------------




--------------------------------------- Iteration      1(  11)  ---------------------------------------


    POTLOK:  cpu time    0.1293: real time    0.1329
    SETDIJ:  cpu time    0.0022: real time    0.0022
    EDDIAG:  cpu time    0.0372: real time    0.0383
  RMM-DIIS:  cpu time    0.1504: real time    0.1616
    ORTHCH:  cpu time    0.0014: real time    0.0014
       DOS:  cpu time    0.0002: real time    0.0002
    CHARGE:  cpu time    0.0178: real time    0.0183
    MIXING:  cpu time    0.0048: real time    0.0049
    --------------------------------------------
      LOOP:  cpu time    0.3432: real time    0.3598

 eigenvalue-minimisations  :    64
 total energy-change (2. order) :-0.8039411E-03  (-0.8090466E-03)
 number of electron       8.0000001 magnetization 
 augmentation part        0.1844901 magnetization 

 Broyden mixing:
  rms(total) = 0.86982E-02    rms(broyden)= 0.86946E-02
  rms(prec ) = 0.14368E-01
  weight for this iteration     100.00

 eigenvalues of (default mixing * dielectric matrix)
  average eigenvalue GAMMA=   2.2716
  4.8139  3.0834  2.4309  1.2798  1.0108  1.0108

 Free energy of the ion-electron system (eV)
  ---------------------------------------------------
  alpha Z        PSCENC =         0.24042888
  Ewald energy   TEWEN  =       128.27113805
  -Hartree energ DENC   =      -283.75425073
  -exchange      EXHF   =         0.00000000
  -V(xc)+E(xc)   XCENC  =        24.71585322
  PAW double counting   =       466.20850476     -466.99141220
  entropy T*S    EENTRO =        -0.00000000
  eigenvalues    EBANDS =       -89.72367826
  atomic energy  EATOM  =       197.04175453
  Solvation  Ediel_sol  =         0.00000000
  ---------------------------------------------------
  free energy    TOTEN  =       -23.99166175 eV

  energy without entropy =      -23.99166175  energy(sigma->0) =      -23.99166175


--------------------------------------------------------------------------------------------------------




--------------------------------------- Iteration      1(  12)  ---------------------------------------


    POTLOK:  cpu time    0.1278: real time    0.1343
    SETDIJ:  cpu time    0.0026: real time    0.0026
    EDDIAG:  cpu time    0.0376: real time    0.0389
  RMM-DIIS:  cpu time    0.1530: real time    0.1597
    ORTHCH:  cpu time    0.0015: real time    0.0015
       DOS:  cpu time    0.0002: real time    0.0002
    CHARGE:  cpu time    0.0178: real time    0.0185
    MIXING:  cpu time    0.0049: real time    0.0051
    --------------------------------------------
      LOOP:  cpu time    0.3453: real time    0.3608

 eigenvalue-minimisations  :    64
 total energy-change (2. order) :-0.9378431E-02  (-0.3176448E-03)
 number of electron       8.0000001 magnetization 
 augmentation part        0.1846863 magnetization 

 Broyden mixing:
  rms(total) = 0.11944E-01    rms(broyden)= 0.11943E-01
  rms(prec ) = 0.15603E-01
  weight for this iteration     100.00

 eigenvalues of (default mixing * dielectric matrix)
  average eigenvalue GAMMA=   2.0150
  4.7958  2.9257  2.4251  1.2259  1.0069  1.0069  0.7183

 Free energy of the ion-electron system (eV)
  ---------------------------------------------------
  alpha Z        PSCENC =         0.24042888
  Ewald energy   TEWEN  =       128.27113805
  -Hartree energ DENC   =      -283.97104518
  -exchange      EXHF   =         0.00000000
  -V(xc)+E(xc)   XCENC  =        24.70802836
  PAW double counting   =       462.97976179     -463.76177756
  entropy T*S    EENTRO =        -0.00000000
  eigenvalues    EBANDS =       -89.50932906
  atomic energy  EATOM  =       197.04175453
  Solvation  Ediel_sol  =         0.00000000
  ---------------------------------------------------
  free energy    TOTEN  =       -24.00104018 eV

  energy without entropy =      -24.00104018  energy(sigma->0) =      -24.00104018


--------------------------------------------------------------------------------------------------------




--------------------------------------- Iteration      1(  13)  ---------------------------------------


    POTLOK:  cpu time    0.1212: real time    0.1259
    SETDIJ:  cpu time    0.0022: real time    0.0022
    EDDIAG:  cpu time    0.0382: real time    0.0398
  RMM-DIIS:  cpu time    0.1525: real time    0.1578
    ORTHCH:  cpu time    0.0015: real time    0.0015
       DOS:  cpu time    0.0002: real time    0.0002
    CHARGE:  cpu time    0.0178: real time    0.0183
    MIXING:  cpu time    0.0051: real time    0.0052
    --------------------------------------------
      LOOP:  cpu time    0.3385: real time    0.3509

 eigenvalue-minimisations  :    64
 total energy-change (2. order) :-0.5318554E-03  (-0.9448295E-04)
 number of electron       8.0000001 magnetization 
 augmentation part        0.1844506 magnetization 

 Broyden mixing:
  rms(total) = 0.46045E-02    rms(broyden)= 0.46043E-02
  rms(prec ) = 0.63811E-02
  weight for this iteration     100.00

 eigenvalues of (default mixing * dielectric matrix)
  average eigenvalue GAMMA=   2.4168
  6.0975  4.0835  2.4583  2.3805  1.2176  1.2176  0.9922  0.8868

 Free energy of the ion-electron system (eV)
  ---------------------------------------------------
  alpha Z        PSCENC =         0.24042888
  Ewald energy   TEWEN  =       128.27113805
  -Hartree energ DENC   =      -284.14634983
  -exchange      EXHF   =         0.00000000
  -V(xc)+E(xc)   XCENC  =        24.71277427
  PAW double counting   =       462.73809169     -463.52240852
  entropy T*S    EENTRO =        -0.00000000
  eigenvalues    EBANDS =       -89.33700110
  atomic energy  EATOM  =       197.04175453
  Solvation  Ediel_sol  =         0.00000000
  ---------------------------------------------------
  free energy    TOTEN  =       -24.00157203 eV

  energy without entropy =      -24.00157203  energy(sigma->0) =      -24.00157203


--------------------------------------------------------------------------------------------------------




--------------------------------------- Iteration      1(  14)  ---------------------------------------


    POTLOK:  cpu time    0.1231: real time    0.1275
    SETDIJ:  cpu time    0.0017: real time    0.0020
    EDDIAG:  cpu time    0.0368: real time    0.0385
  RMM-DIIS:  cpu time    0.1526: real time    0.1593
    ORTHCH:  cpu time    0.0015: real time    0.0015
       DOS:  cpu time    0.0002: real time    0.0002
    CHARGE:  cpu time    0.0178: real time    0.0185
    MIXING:  cpu time    0.0052: real time    0.0054
    --------------------------------------------
      LOOP:  cpu time    0.3388: real time    0.3529

 eigenvalue-minimisations  :    64
 total energy-change (2. order) :-0.2875003E-02  (-0.1296546E-03)
 number of electron       8.0000001 magnetization 
 augmentation part        0.1843264 magnetization 

 Broyden mixing:
  rms(total) = 0.29711E-02    rms(broyden)= 0.29692E-02
  rms(prec ) = 0.38715E-02
  weight for this iteration     100.00

 eigenvalues of (default mixing * dielectric matrix)
  average eigenvalue GAMMA=   2.3210
  6.4265  4.0378  2.5664  2.3606  1.2025  1.2025  0.9377  0.9730  1.1820

 Free energy of the ion-electron system (eV)
  ---------------------------------------------------
  alpha Z        PSCENC =         0.24042888
  Ewald energy   TEWEN  =       128.27113805
  -Hartree energ DENC   =      -284.15019788
  -exchange      EXHF   =         0.00000000
  -V(xc)+E(xc)   XCENC  =        24.70303954
  PAW double counting   =       462.08357977     -462.86923420
  entropy T*S    EENTRO =        -0.00000000
  eigenvalues    EBANDS =       -89.32495573
  atomic energy  EATOM  =       197.04175453
  Solvation  Ediel_sol  =         0.00000000
  ---------------------------------------------------
  free energy    TOTEN  =       -24.00444704 eV

  energy without entropy =      -24.00444704  energy(sigma->0) =      -24.00444704


--------------------------------------------------------------------------------------------------------




--------------------------------------- Iteration      1(  15)  ---------------------------------------


    POTLOK:  cpu time    0.1216: real time    0.1255
    SETDIJ:  cpu time    0.0017: real time    0.0017
    EDDIAG:  cpu time    0.0383: real time    0.0396
  RMM-DIIS:  cpu time    0.1530: real time    0.1607
    ORTHCH:  cpu time    0.0015: real time    0.0015
       DOS:  cpu time    0.0002: real time    0.0002
    CHARGE:  cpu time    0.0176: real time    0.0183
    MIXING:  cpu time    0.0053: real time    0.0055
    --------------------------------------------
      LOOP:  cpu time    0.3391: real time    0.3530

 eigenvalue-minimisations  :    64
 total energy-change (2. order) :-0.2357292E-03  (-0.3931578E-05)
 number of electron       8.0000001 magnetization 
 augmentation part        0.1842926 magnetization 

 Broyden mixing:
  rms(total) = 0.17753E-02    rms(broyden)= 0.17751E-02
  rms(prec ) = 0.23421E-02
  weight for this iteration     100.00

 eigenvalues of (default mixing * dielectric matrix)
  average eigenvalue GAMMA=   2.5356
  7.5528  4.8250  2.8577  2.6163  2.1187  1.2565  1.2565  0.9942  0.9770  0.9015

 Free energy of the ion-electron system (eV)
  ---------------------------------------------------
  alpha Z        PSCENC =         0.24042888
  Ewald energy   TEWEN  =       128.27113805
  -Hartree energ DENC   =      -284.14409038
  -exchange      EXHF   =         0.00000000
  -V(xc)+E(xc)   XCENC  =        24.70340859
  PAW double counting   =       462.25384322     -463.03894957
  entropy T*S    EENTRO =        -0.00000000
  eigenvalues    EBANDS =       -89.33221609
  atomic energy  EATOM  =       197.04175453
  Solvation  Ediel_sol  =         0.00000000
  ---------------------------------------------------
  free energy    TOTEN  =       -24.00468276 eV

  energy without entropy =      -24.00468276  energy(sigma->0) =      -24.00468276


--------------------------------------------------------------------------------------------------------




--------------------------------------- Iteration      1(  16)  ---------------------------------------


    POTLOK:  cpu time    0.1203: real time    0.1259
    SETDIJ:  cpu time    0.0019: real time    0.0019
    EDDIAG:  cpu time    0.0368: real time    0.0386
  RMM-DIIS:  cpu time    0.1540: real time    0.1611
    ORTHCH:  cpu time    0.0015: real time    0.0015
       DOS:  cpu time    0.0002: real time    0.0002
    CHARGE:  cpu time    0.0177: real time    0.0184
    MIXING:  cpu time    0.0055: real time    0.0056
    --------------------------------------------
      LOOP:  cpu time    0.3380: real time    0.3532

 eigenvalue-minimisations  :    64
 total energy-change (2. order) :-0.2182693E-03  (-0.1261662E-04)
 number of electron       8.0000001 magnetization 
 augmentation part        0.1843490 magnetization 

 Broyden mixing:
  rms(total) = 0.84451E-03    rms(broyden)= 0.84401E-03
  rms(prec ) = 0.11315E-02
  weight for this iteration     100.00

 eigenvalues of (default mixing * dielectric matrix)
  average eigenvalue GAMMA=   2.4736
  7.7176  4.8142  3.3266  2.4253  2.1673  1.3111  1.3111  1.2394  1.0430  0.9271
  0.9271

 Free energy of the ion-electron system (eV)
  ---------------------------------------------------
  alpha Z        PSCENC =         0.24042888
  Ewald energy   TEWEN  =       128.27113805
  -Hartree energ DENC   =      -284.10061404
  -exchange      EXHF   =         0.00000000
  -V(xc)+E(xc)   XCENC  =        24.70203134
  PAW double counting   =       462.28310657     -463.06757224
  entropy T*S    EENTRO =        -0.00000000
  eigenvalues    EBANDS =       -89.37517412
  atomic energy  EATOM  =       197.04175453
  Solvation  Ediel_sol  =         0.00000000
  ---------------------------------------------------
  free energy    TOTEN  =       -24.00490103 eV

  energy without entropy =      -24.00490103  energy(sigma->0) =      -24.00490103


--------------------------------------------------------------------------------------------------------




--------------------------------------- Iteration      1(  17)  ---------------------------------------


    POTLOK:  cpu time    0.1231: real time    0.1288
    SETDIJ:  cpu time    0.0016: real time    0.0017
    EDDIAG:  cpu time    0.0369: real time    0.0386
  RMM-DIIS:  cpu time    0.1544: real time    0.1609
    ORTHCH:  cpu time    0.0015: real time    0.0015
       DOS:  cpu time    0.0002: real time    0.0002
    CHARGE:  cpu time    0.0177: real time    0.0183
    MIXING:  cpu time    0.0056: real time    0.0058
    --------------------------------------------
      LOOP:  cpu time    0.3410: real time    0.3557

 eigenvalue-minimisations  :    64
 total energy-change (2. order) :-0.3263100E-04  (-0.2891748E-05)
 number of electron       8.0000001 magnetization 
 augmentation part        0.1843150 magnetization 

 Broyden mixing:
  rms(total) = 0.39329E-03    rms(broyden)= 0.39324E-03
  rms(prec ) = 0.57023E-03
  weight for this iteration     100.00

 eigenvalues of (default mixing * dielectric matrix)
  average eigenvalue GAMMA=   2.5806
  8.4152  5.2678  3.8765  2.5221  2.5221  1.8658  1.3002  1.3002  1.0640  0.9925
  0.9345  0.9065

 Free energy of the ion-electron system (eV)
  ---------------------------------------------------
  alpha Z        PSCENC =         0.24042888
  Ewald energy   TEWEN  =       128.27113805
  -Hartree energ DENC   =      -284.14586699
  -exchange      EXHF   =         0.00000000
  -V(xc)+E(xc)   XCENC  =        24.70409555
  PAW double counting   =       462.26865151     -463.05350317
  entropy T*S    EENTRO =        -0.00000000
  eigenvalues    EBANDS =       -89.33163203
  atomic energy  EATOM  =       197.04175453
  Solvation  Ediel_sol  =         0.00000000
  ---------------------------------------------------
  free energy    TOTEN  =       -24.00493367 eV

  energy without entropy =      -24.00493367  energy(sigma->0) =      -24.00493367


--------------------------------------------------------------------------------------------------------




--------------------------------------- Iteration      1(  18)  ---------------------------------------


    POTLOK:  cpu time    0.1274: real time    0.1328
    SETDIJ:  cpu time    0.0017: real time    0.0018
    EDDIAG:  cpu time    0.0370: real time    0.0386
  RMM-DIIS:  cpu time    0.1242: real time    0.1296
    ORTHCH:  cpu time    0.0015: real time    0.0015
       DOS:  cpu time    0.0002: real time    0.0002
    CHARGE:  cpu time    0.0180: real time    0.0187
    MIXING:  cpu time    0.0059: real time    0.0061
    --------------------------------------------
      LOOP:  cpu time    0.3159: real time    0.3291

 eigenvalue-minimisations  :    48
 total energy-change (2. order) :-0.1248863E-04  (-0.2016012E-06)
 number of electron       8.0000001 magnetization 
 augmentation part        0.1843189 magnetization 

 Broyden mixing:
  rms(total) = 0.83633E-04    rms(broyden)= 0.83630E-04
  rms(prec ) = 0.13494E-03
  weight for this iteration     100.00

 eigenvalues of (default mixing * dielectric matrix)
  average eigenvalue GAMMA=   2.6073
  8.4733  5.5319  3.5849  3.5849  2.3555  2.3555  1.4267  1.2947  1.2947  1.1253
  0.8998  0.9836  0.9836

 Free energy of the ion-electron system (eV)
  ---------------------------------------------------
  alpha Z        PSCENC =         0.24042888
  Ewald energy   TEWEN  =       128.27113805
  -Hartree energ DENC   =      -284.13033849
  -exchange      EXHF   =         0.00000000
  -V(xc)+E(xc)   XCENC  =        24.70327554
  PAW double counting   =       462.22781408     -463.01252888
  entropy T*S    EENTRO =        -0.00000000
  eigenvalues    EBANDS =       -89.34648986
  atomic energy  EATOM  =       197.04175453
  Solvation  Ediel_sol  =         0.00000000
  ---------------------------------------------------
  free energy    TOTEN  =       -24.00494615 eV

  energy without entropy =      -24.00494615  energy(sigma->0) =      -24.00494615


--------------------------------------------------------------------------------------------------------




--------------------------------------- Iteration      1(  19)  ---------------------------------------


    POTLOK:  cpu time    0.1277: real time    0.1328
    SETDIJ:  cpu time    0.0017: real time    0.0017
    EDDIAG:  cpu time    0.0375: real time    0.0388
  RMM-DIIS:  cpu time    0.1223: real time    0.1271
    ORTHCH:  cpu time    0.0015: real time    0.0016
       DOS:  cpu time    0.0002: real time    0.0002
    CHARGE:  cpu time    0.0177: real time    0.0183
    MIXING:  cpu time    0.0061: real time    0.0062
    --------------------------------------------
      LOOP:  cpu time    0.3145: real time    0.3267

 eigenvalue-minimisations  :    48
 total energy-change (2. order) :-0.3814136E-05  (-0.1417190E-06)
 number of electron       8.0000001 magnetization 
 augmentation part        0.1843262 magnetization 

 Broyden mixing:
  rms(total) = 0.87835E-04    rms(broyden)= 0.87804E-04
  rms(prec ) = 0.12962E-03
  weight for this iteration     100.00

 eigenvalues of (default mixing * dielectric matrix)
  average eigenvalue GAMMA=   2.5511
  8.5468  5.6116  3.8862  3.5301  2.4574  2.4574  1.9226  1.2863  1.2863  1.0529
  0.9606  0.9606  0.8786  0.8786

 Free energy of the ion-electron system (eV)
  ---------------------------------------------------
  alpha Z        PSCENC =         0.24042888
  Ewald energy   TEWEN  =       128.27113805
  -Hartree energ DENC   =      -284.12279186
  -exchange      EXHF   =         0.00000000
  -V(xc)+E(xc)   XCENC  =        24.70277419
  PAW double counting   =       462.20122544     -462.98589830
  entropy T*S    EENTRO =        -0.00000000
  eigenvalues    EBANDS =       -89.35358090
  atomic energy  EATOM  =       197.04175453
  Solvation  Ediel_sol  =         0.00000000
  ---------------------------------------------------
  free energy    TOTEN  =       -24.00494997 eV

  energy without entropy =      -24.00494997  energy(sigma->0) =      -24.00494997


--------------------------------------------------------------------------------------------------------




--------------------------------------- Iteration      1(  20)  ---------------------------------------


    POTLOK:  cpu time    0.1275: real time    0.1322
    SETDIJ:  cpu time    0.0017: real time    0.0018
    EDDIAG:  cpu time    0.0377: real time    0.0393
  RMM-DIIS:  cpu time    0.1234: real time    0.1292
    ORTHCH:  cpu time    0.0015: real time    0.0015
       DOS:  cpu time    0.0002: real time    0.0002
    CHARGE:  cpu time    0.0180: real time    0.0186
    MIXING:  cpu time    0.0061: real time    0.0063
    --------------------------------------------
      LOOP:  cpu time    0.3162: real time    0.3290

 eigenvalue-minimisations  :    48
 total energy-change (2. order) :-0.1042989E-05  (-0.2339544E-07)
 number of electron       8.0000001 magnetization 
 augmentation part        0.1843265 magnetization 

 Broyden mixing:
  rms(total) = 0.34266E-04    rms(broyden)= 0.34258E-04
  rms(prec ) = 0.52845E-04
  weight for this iteration     100.00

 eigenvalues of (default mixing * dielectric matrix)
  average eigenvalue GAMMA=   2.5086
  8.5890  5.5367  4.3671  3.3443  2.5475  2.2815  2.1926  1.2761  1.2761  0.9034
  0.9518  1.1159  1.1159  1.1110  1.0207

 Free energy of the ion-electron system (eV)
  ---------------------------------------------------
  alpha Z        PSCENC =         0.24042888
  Ewald energy   TEWEN  =       128.27113805
  -Hartree energ DENC   =      -284.12630488
  -exchange      EXHF   =         0.00000000
  -V(xc)+E(xc)   XCENC  =        24.70296646
  PAW double counting   =       462.20745953     -462.99215715
  entropy T*S    EENTRO =        -0.00000000
  eigenvalues    EBANDS =       -89.35023644
  atomic energy  EATOM  =       197.04175453
  Solvation  Ediel_sol  =         0.00000000
  ---------------------------------------------------
  free energy    TOTEN  =       -24.00495101 eV

  energy without entropy =      -24.00495101  energy(sigma->0) =      -24.00495101


--------------------------------------------------------------------------------------------------------




--------------------------------------- Iteration      1(  21)  ---------------------------------------


    POTLOK:  cpu time    0.1840: real time    0.1890
    SETDIJ:  cpu time    0.0021: real time    0.0021
    EDDIAG:  cpu time    0.0380: real time    0.0395
  RMM-DIIS:  cpu time    0.1057: real time    0.1099
    ORTHCH:  cpu time    0.0015: real time    0.0015
       DOS:  cpu time    0.0002: real time    0.0002
    --------------------------------------------
      LOOP:  cpu time    0.3313: real time    0.3421

 eigenvalue-minimisations  :    32
 total energy-change (2. order) :-0.5581962E-06  ( 0.0000000E+00)
 number of electron       8.0000001 magnetization 
 augmentation part        0.1843265 magnetization 

 Free energy of the ion-electron system (eV)
  ---------------------------------------------------
  alpha Z        PSCENC =         0.24042888
  Ewald energy   TEWEN  =       128.27113805
  -Hartree energ DENC   =      -284.12764199
  -exchange      EXHF   =         0.00000000
  -V(xc)+E(xc)   XCENC  =        24.70304243
  PAW double counting   =       462.20931829     -462.99402543
  entropy T*S    EENTRO =        -0.00000000
  eigenvalues    EBANDS =       -89.34896633
  atomic energy  EATOM  =       197.04175453
  Solvation  Ediel_sol  =         0.00000000
  ---------------------------------------------------
  free energy    TOTEN  =       -24.00495157 eV

  energy without entropy =      -24.00495157  energy(sigma->0) =      -24.00495157


--------------------------------------------------------------------------------------------------------




 average (electrostatic) potential at core
  the test charge radii are     0.5201  0.6991
  (the norm of the test charge is              1.0000)
       1 -41.6189       2 -41.5315       3 -41.4244       4 -41.3283       5 -57.9854
 
 
 
 E-fermi :  -8.1387     XC(G=0):  -0.6960     alpha+bet : -0.2091


 k-point     1 :       0.2500    0.2500    0.2500
  band No.  band energies     occupation 
      1     -16.8601      2.00000
      2      -9.4107      2.00000
      3      -9.3325      2.00000
      4      -9.0714      2.00000
      5      -0.3209      0.00000
      6       0.5517      0.00000
      7       0.6655      0.00000
      8       0.7084      0.00000

 k-point     2 :      -0.2500    0.2500    0.2500
  band No.  band energies     occupation 
      1     -16.8601      2.00000
      2      -9.4106      2.00000
      3      -9.3325      2.00000
      4      -9.0714      2.00000
      5      -0.3153      0.00000
      6       0.5478      0.00000
      7       0.6444      0.00000
      8       0.6876      0.00000

 k-point     3 :       0.2500   -0.2500    0.2500
  band No.  band energies     occupation 
      1     -16.8601      2.00000
      2      -9.4106      2.00000
      3      -9.3324      2.00000
      4      -9.0712      2.00000
      5      -0.3204      0.00000
      6       0.5546      0.00000
      7       0.6571      0.00000
      8       0.7065      0.00000

 k-point     4 :      -0.2500   -0.2500    0.2500
  band No.  band energies     occupation 
      1     -16.8601      2.00000
      2      -9.4106      2.00000
      3      -9.3325      2.00000
      4      -9.0712      2.00000
      5      -0.3256      0.00000
      6       0.5613      0.00000
      7       0.6717      0.00000
      8       0.7263      0.00000


--------------------------------------------------------------------------------------------------------


 soft charge-density along one line, spin component           1
         0         1         2         3         4         5         6         7         8         9
 total charge-density along one line
 
 pseudopotential strength for first ion, spin component:           1
 -2.342  -4.036  -0.001  -0.001   0.001
 -4.036  -6.869  -0.003  -0.005   0.002
 -0.001  -0.003  -0.337   0.002  -0.001
 -0.001  -0.005   0.002  -0.335  -0.001
  0.001   0.002  -0.001  -0.001  -0.338
 total augmentation occupancy for first ion, spin component:           1
  3.601  -0.646   0.231   0.359  -0.139
 -0.646   0.131  -0.043  -0.066   0.026
  0.231  -0.043   0.022   0.019  -0.007
  0.359  -0.066   0.019   0.039  -0.012
 -0.139   0.026  -0.007  -0.012   0.014


------------------------ aborting loop because EDIFF is reached ----------------------------------------


    CHARGE:  cpu time    0.0180: real time    0.0189
    FORLOC:  cpu time    0.0132: real time    0.0135
    FORNL :  cpu time    0.0211: real time    0.0215
    STRESS:  cpu time    0.1589: real time    0.1654
    FORCOR:  cpu time    0.1308: real time    0.1343
    FORHAR:  cpu time    0.0405: real time    0.0415
    MIXING:  cpu time    0.0060: real time    0.0061
    OFIELD:  cpu time    0.0000: real time    0.0000

  FORCE on cell =-STRESS in cart. coord.  units (eV):
  Direction    XX          YY          ZZ          XY          YZ          ZX
  --------------------------------------------------------------------------------------
  Alpha Z     0.24043     0.24043     0.24043
  Ewald      43.53048    42.19571    42.54490     2.67525    -0.18765    -0.88017
  Hartree    94.46221    96.82858    92.83841     1.18860    -0.68488    -0.02694
  E(xc)     -27.16574   -27.18711   -27.15351     0.01441    -0.00681    -0.00126
  Local    -196.46474  -198.54125  -193.80722    -3.56290     1.19091     0.60338
  n-local   -15.83699   -15.81040   -15.78739     0.01728    -0.06928     0.03236
  augment     0.11465     0.12277     0.11518    -0.00156    -0.00369     0.00288
  Kinetic   100.76010   101.79582   100.13827    -0.68010     0.38826     0.03538
  Fock        0.00000     0.00000     0.00000     0.00000     0.00000     0.00000
  -------------------------------------------------------------------------------------
  Total      -0.35960    -0.35544    -0.87092    -0.34902     0.62685    -0.23438
  in kB      -0.57181    -0.56520    -1.38488    -0.55499     0.99676    -0.37269
  external pressure =       -0.84 kB  Pullay stress =        0.00 kB

  kinetic pressure (ideal gas correction) =      0.00 kB
  total pressure  =     -0.84 kB
  Total+kin.    -0.572      -0.565      -1.385      -0.555       0.997      -0.373

 VOLUME and BASIS-vectors are now :
 -----------------------------------------------------------------------------
  energy-cutoff  :      400.00
  volume of cell :     1007.58
      direct lattice vectors                 reciprocal lattice vectors
    10.061477372  0.000000000  0.000000000     0.099388983 -0.002893883 -0.000305595
     0.284728382  9.778854293  0.000000000     0.000000000  0.102261468  0.002953604
     0.022875236 -0.295780155 10.240681013     0.000000000  0.000000000  0.097649756

  length of vectors
    10.061477372  9.782998596 10.244977149     0.099431574  0.102304114  0.097649756


 FORCES acting on ions
    electron-ion (+dipol)            ewald-force                    non-local-force                 convergence-correction
 -----------------------------------------------------------------------------------------------
   -.166E+02 0.277E+02 0.426E+02   0.185E+02 -.311E+02 -.475E+02   -.177E+01 0.291E+01 0.460E+01   0.441E-04 -.620E-04 -.130E-03
   0.525E+02 -.632E+01 0.331E+01   -.581E+02 0.713E+01 -.364E+01   0.551E+01 -.635E+00 0.358E+00   -.145E-03 0.216E-04 -.185E-04
   -.249E+02 -.461E+02 0.796E+00   0.272E+02 0.506E+02 -.803E+00   -.258E+01 -.470E+01 0.107E+00   0.648E-04 0.115E-03 -.109E-04
   -.110E+02 0.241E+02 -.444E+02   0.120E+02 -.262E+02 0.481E+02   -.108E+01 0.237E+01 -.444E+01   0.339E-04 -.633E-04 0.137E-03
   -.315E+00 0.487E+00 -.326E+01   0.422E+00 -.451E+00 0.385E+01   0.161E+00 0.169E+00 0.283E+00   0.730E-05 0.415E-04 -.644E-04
 -----------------------------------------------------------------------------------------------
   -.248E+00 -.117E+00 -.910E+00   0.107E-13 0.000E+00 0.000E+00   0.248E+00 0.118E+00 0.910E+00   0.511E-05 0.531E-04 -.866E-04
 
 
 POSITION                                       TOTAL-FORCE (eV/Angst)
 -----------------------------------------------------------------------------------
      5.53721      3.87346      3.69302         0.200219     -0.473437     -0.259755
      4.11947      4.56387      4.48666        -0.110864      0.166567      0.023102
      5.72720      5.40570      4.53774        -0.277418     -0.139727      0.099584
      5.44082      3.90976      5.51982        -0.080138      0.242944     -0.742822
      5.20222      4.43274      4.55641         0.267987      0.204297      0.879599
 -----------------------------------------------------------------------------------
    total drift:                               -0.000214      0.000644     -0.000291


--------------------------------------------------------------------------------------------------------



  FREE ENERGIE OF THE ION-ELECTRON SYSTEM (eV)
  ---------------------------------------------------
  free  energy   TOTEN  =       -24.00495157 eV

  energy  without entropy=      -24.00495157  energy(sigma->0) =      -24.00495157
 


--------------------------------------------------------------------------------------------------------


    POTLOK:  cpu time    0.1325: real time    0.1370


--------------------------------------------------------------------------------------------------------


 stress matrix after NEB project (eV)
     -0.35960     -0.34902     -0.23438
     -0.34902     -0.35544      0.62685
     -0.23438      0.62685     -0.87092
  FORCES: max atom, RMS     0.941939    0.629786
  FORCE total and by dimension    1.408244    0.879599
  Stress total and by dimension    1.467491    0.870925
           RANDOM_SEED =         581349897                0                0
           RANDOM_SEED =         581349897               30                0
   IONSTEP:  cpu time    0.0034: real time    0.0068

  ENERGY OF THE ELECTRON-ION-THERMOSTAT SYSTEM (eV)
  ---------------------------------------------------
% ion-electron   TOTEN  =       -24.004952  see above
  kinetic energy EKIN   =         0.000351
  kin. lattice  EKIN_LAT=         0.000000  (temperature    0.68 K)
  nose potential ES     =         0.000000
  nose kinetic   EPS    =         0.000000
  ---------------------------------------------------
  total energy   ETOTAL =       -24.004601 eV

  maximum distance moved by ions :      0.18E-03

    WAVPRE:  cpu time    0.0401: real time    0.0408
    FEWALD:  cpu time    0.0011: real time    0.0012
    ORTHCH:  cpu time    0.0087: real time    0.0087
     LOOP+:  cpu time    7.1687: real time    7.4947


--------------------------------------- Iteration      2(   1)  ---------------------------------------


    POTLOK:  cpu time    0.1344: real time    0.1374
    SETDIJ:  cpu time    0.0017: real time    0.0017
     EDDAV:  cpu time    0.1488: real time    0.1516
       DOS:  cpu time    0.0003: real time    0.0003
    CHARGE:  cpu time    0.0178: real time    0.0182
    MIXING:  cpu time    0.0042: real time    0.0043
    --------------------------------------------
      LOOP:  cpu time    0.3072: real time    0.3135

 eigenvalue-minimisations  :    64
 total energy-change (2. order) :-0.2716835E-02  (-0.2844679E-03)
 number of electron       8.0000001 magnetization 
 augmentation part        0.1843896 magnetization 

 Broyden mixing:
  rms(total) = 0.21278E-02    rms(broyden)= 0.21260E-02
  rms(prec ) = 0.24746E-02
  weight for this iteration     100.00

 Free energy of the ion-electron system (eV)
  ---------------------------------------------------
  alpha Z        PSCENC =         0.24042888
  Ewald energy   TEWEN  =       128.31785268
  -Hartree energ DENC   =      -284.15982694
  -exchange      EXHF   =         0.00000000
  -V(xc)+E(xc)   XCENC  =        24.70463014
  PAW double counting   =       462.20812693     -462.99285262
  entropy T*S    EENTRO =        -0.00000000
  eigenvalues    EBANDS =       -89.36778145
  atomic energy  EATOM  =       197.04175453
  Solvation  Ediel_sol  =         0.00000000
  ---------------------------------------------------
  free energy    TOTEN  =       -24.00766785 eV

  energy without entropy =      -24.00766785  energy(sigma->0) =      -24.00766785


--------------------------------------------------------------------------------------------------------




--------------------------------------- Iteration      2(   2)  ---------------------------------------


    POTLOK:  cpu time    0.1383: real time    0.1393
    SETDIJ:  cpu time    0.0019: real time    0.0019
    EDDIAG:  cpu time    0.0382: real time    0.0385
  RMM-DIIS:  cpu time    0.1560: real time    0.1572
    ORTHCH:  cpu time    0.0028: real time    0.0028
       DOS:  cpu time    0.0002: real time    0.0002
    CHARGE:  cpu time    0.0181: real time    0.0183
    MIXING:  cpu time    0.0045: real time    0.0045
    --------------------------------------------
      LOOP:  cpu time    0.3600: real time    0.3626

 eigenvalue-minimisations  :    64
 total energy-change (2. order) :-0.1892160E-05  (-0.8871773E-05)
 number of electron       8.0000001 magnetization 
 augmentation part        0.1843837 magnetization 

 Broyden mixing:
  rms(total) = 0.14291E-02    rms(broyden)= 0.14286E-02
  rms(prec ) = 0.16554E-02
  weight for this iteration     100.00

 eigenvalues of (default mixing * dielectric matrix)
  average eigenvalue GAMMA=   1.9516
  1.9516

 Free energy of the ion-electron system (eV)
  ---------------------------------------------------
  alpha Z        PSCENC =         0.24042888
  Ewald energy   TEWEN  =       128.31785268
  -Hartree energ DENC   =      -284.16757753
  -exchange      EXHF   =         0.00000000
  -V(xc)+E(xc)   XCENC  =        24.70505884
  PAW double counting   =       462.35321473     -463.13801768
  entropy T*S    EENTRO =        -0.00000000
  eigenvalues    EBANDS =       -89.36038419
  atomic energy  EATOM  =       197.04175453
  Solvation  Ediel_sol  =         0.00000000
  ---------------------------------------------------
  free energy    TOTEN  =       -24.00766974 eV

  energy without entropy =      -24.00766974  energy(sigma->0) =      -24.00766974


--------------------------------------------------------------------------------------------------------




--------------------------------------- Iteration      2(   3)  ---------------------------------------


    POTLOK:  cpu time    0.1373: real time    0.1381
    SETDIJ:  cpu time    0.0018: real time    0.0020
    EDDIAG:  cpu time    0.0392: real time    0.0395
  RMM-DIIS:  cpu time    0.1575: real time    0.1587
    ORTHCH:  cpu time    0.0025: real time    0.0026
       DOS:  cpu time    0.0002: real time    0.0002
    CHARGE:  cpu time    0.0181: real time    0.0183
    MIXING:  cpu time    0.0047: real time    0.0048
    --------------------------------------------
      LOOP:  cpu time    0.3613: real time    0.3641

 eigenvalue-minimisations  :    64
 total energy-change (2. order) : 0.9044253E-06  (-0.1162420E-05)
 number of electron       8.0000001 magnetization 
 augmentation part        0.1843748 magnetization 

 Broyden mixing:
  rms(total) = 0.28021E-03    rms(broyden)= 0.27982E-03
  rms(prec ) = 0.34452E-03
  weight for this iteration     100.00

 eigenvalues of (default mixing * dielectric matrix)
  average eigenvalue GAMMA=   1.6583
  1.0511  2.2655

 Free energy of the ion-electron system (eV)
  ---------------------------------------------------
  alpha Z        PSCENC =         0.24042888
  Ewald energy   TEWEN  =       128.31785268
  -Hartree energ DENC   =      -284.17392664
  -exchange      EXHF   =         0.00000000
  -V(xc)+E(xc)   XCENC  =        24.70539492
  PAW double counting   =       462.45067400     -463.23554735
  entropy T*S    EENTRO =        -0.00000000
  eigenvalues    EBANDS =       -89.35429986
  atomic energy  EATOM  =       197.04175453
  Solvation  Ediel_sol  =         0.00000000
  ---------------------------------------------------
  free energy    TOTEN  =       -24.00766883 eV

  energy without entropy =      -24.00766883  energy(sigma->0) =      -24.00766883


--------------------------------------------------------------------------------------------------------




--------------------------------------- Iteration      2(   4)  ---------------------------------------


    POTLOK:  cpu time    0.1402: real time    0.1410
    SETDIJ:  cpu time    0.0023: real time    0.0024
    EDDIAG:  cpu time    0.0391: real time    0.0395
  RMM-DIIS:  cpu time    0.1253: real time    0.1261
    ORTHCH:  cpu time    0.0029: real time    0.0029
       DOS:  cpu time    0.0002: real time    0.0002
    --------------------------------------------
      LOOP:  cpu time    0.3100: real time    0.3120

 eigenvalue-minimisations  :    48
 total energy-change (2. order) : 0.1223617E-06  (-0.3436002E-07)
 number of electron       8.0000001 magnetization 
 augmentation part        0.1843748 magnetization 

 Free energy of the ion-electron system (eV)
  ---------------------------------------------------
  alpha Z        PSCENC =         0.24042888
  Ewald energy   TEWEN  =       128.31785268
  -Hartree energ DENC   =      -284.17244675
  -exchange      EXHF   =         0.00000000
  -V(xc)+E(xc)   XCENC  =        24.70533146
  PAW double counting   =       462.45133287     -463.23618585
  entropy T*S    EENTRO =        -0.00000000
  eigenvalues    EBANDS =       -89.35573654
  atomic energy  EATOM  =       197.04175453
  Solvation  Ediel_sol  =         0.00000000
  ---------------------------------------------------
  free energy    TOTEN  =       -24.00766871 eV

  energy without entropy =      -24.00766871  energy(sigma->0) =      -24.00766871


--------------------------------------------------------------------------------------------------------




 average (electrostatic) potential at core
  the test charge radii are     0.5201  0.6991
  (the norm of the test charge is              1.0000)
       1 -41.6074       2 -41.5283       3 -41.4291       4 -41.3407       5 -57.9834
 
 
 
 E-fermi :  -8.1425     XC(G=0):  -0.6994     alpha+bet : -0.2091


 k-point     1 :       0.2500    0.2500    0.2500
  band No.  band energies     occupation 
      1     -16.8610      2.00000
      2      -9.4074      2.00000
      3      -9.3323      2.00000
      4      -9.0773      2.00000
      5      -0.3217      0.00000
      6       0.5533      0.00000
      7       0.6627      0.00000
      8       0.7037      0.00000

 k-point     2 :      -0.2500    0.2500    0.2500
  band No.  band energies     occupation 
      1     -16.8611      2.00000
      2      -9.4073      2.00000
      3      -9.3322      2.00000
      4      -9.0773      2.00000
      5      -0.3159      0.00000
      6       0.5451      0.00000
      7       0.6441      0.00000
      8       0.6838      0.00000

 k-point     3 :       0.2500   -0.2500    0.2500
  band No.  band energies     occupation 
      1     -16.8610      2.00000
      2      -9.4074      2.00000
      3      -9.3321      2.00000
      4      -9.0772      2.00000
      5      -0.3211      0.00000
      6       0.5528      0.00000
      7       0.6576      0.00000
      8       0.7013      0.00000

 k-point     4 :      -0.2500   -0.2500    0.2500
  band No.  band energies     occupation 
      1     -16.8610      2.00000
      2      -9.4073      2.00000
      3      -9.3322      2.00000
      4      -9.0772      2.00000
      5      -0.3265      0.00000
      6       0.5627      0.00000
      7       0.6708      0.00000
      8       0.7197      0.00000


--------------------------------------------------------------------------------------------------------


 soft charge-density along one line, spin component           1
         0         1         2         3         4         5         6         7         8         9
 total charge-density along one line
 
 pseudopotential strength for first ion, spin component:           1
 -2.342  -4.036  -0.001  -0.001   0.001
 -4.036  -6.869  -0.003  -0.005   0.002
 -0.001  -0.003  -0.337   0.002  -0.001
 -0.001  -0.005   0.002  -0.335  -0.001
  0.001   0.002  -0.001  -0.001  -0.338
 total augmentation occupancy for first ion, spin component:           1
  3.596  -0.646   0.230   0.358  -0.138
 -0.646   0.131  -0.043  -0.065   0.026
  0.230  -0.043   0.022   0.019  -0.007
  0.358  -0.065   0.019   0.039  -0.011
 -0.138   0.026  -0.007  -0.011   0.014


------------------------ aborting loop because EDIFF is reached ----------------------------------------


    CHARGE:  cpu time    0.0179: real time    0.0180
    FORLOC:  cpu time    0.0130: real time    0.0131
    FORNL :  cpu time    0.0214: real time    0.0215
    STRESS:  cpu time    0.1595: real time    0.1602
    FORCOR:  cpu time    0.1331: real time    0.1347
    FORHAR:  cpu time    0.0440: real time    0.0444
    MIXING:  cpu time    0.0051: real time    0.0051
    OFIELD:  cpu time    0.0001: real time    0.0001

  FORCE on cell =-STRESS in cart. coord.  units (eV):
  Direction    XX          YY          ZZ          XY          YZ          ZX
  --------------------------------------------------------------------------------------
  Alpha Z     0.24043     0.24043     0.24043
  Ewald      43.50302    42.29410    42.52069     2.64347    -0.24634    -0.83332
  Hartree    94.47790    96.85798    92.83418     1.17021    -0.66681    -0.03096
  E(xc)     -27.16816   -27.18923   -27.15626     0.01404    -0.00647    -0.00134
  Local    -196.46809  -198.64777  -193.78103    -3.51095     1.19666     0.58099
  n-local   -15.83954   -15.81577   -15.79295     0.01587    -0.06408     0.02980
  augment     0.11472     0.12253     0.11514    -0.00163    -0.00333     0.00267
  Kinetic   100.77061   101.79306   100.16614    -0.66253     0.36875     0.04049
  Fock        0.00000     0.00000     0.00000     0.00000     0.00000     0.00000
[...]
      5.70868      5.40051      4.54493         0.036025      0.213359      0.015373
      5.43845      3.91980      5.47777         0.162958     -0.357197      0.499380
      5.20347      4.43374      4.55991        -0.192582     -0.027574     -0.885409
 -----------------------------------------------------------------------------------
    total drift:                                0.000055      0.000300     -0.000183


--------------------------------------------------------------------------------------------------------



  FREE ENERGIE OF THE ION-ELECTRON SYSTEM (eV)
  ---------------------------------------------------
  free  energy   TOTEN  =       -24.01888053 eV

  energy  without entropy=      -24.01888053  energy(sigma->0) =      -24.01888053
 
 d Force =-0.3419802E-02[-0.431E-02,-0.253E-02]  d Energy =-0.3414636E-02-0.517E-05
 d Force =-0.1939409E+00[-0.195E+00,-0.193E+00]  d Ewald  =-0.1939388E+00-0.211E-05


--------------------------------------------------------------------------------------------------------


    POTLOK:  cpu time    0.1338: real time    0.1351


--------------------------------------------------------------------------------------------------------


 stress matrix after NEB project (eV)
     -0.49448      0.04056      0.24480
      0.04056     -0.07438     -0.45187
      0.24480     -0.45187     -0.24961
  FORCES: max atom, RMS     0.906530    0.539695
  FORCE total and by dimension    1.206796    0.885409
  Stress total and by dimension    0.918618    0.494479
           RANDOM_SEED =         581349897               30                0
   IONSTEP:  cpu time    0.0002: real time    0.0002

  ENERGY OF THE ELECTRON-ION-THERMOSTAT SYSTEM (eV)
  ---------------------------------------------------
% ion-electron   TOTEN  =       -24.018881  see above
  kinetic energy EKIN   =         0.014115
  kin. lattice  EKIN_LAT=         0.000000  (temperature   27.30 K)
  nose potential ES     =         0.000000
  nose kinetic   EPS    =         0.000000
  ---------------------------------------------------
  total energy   ETOTAL =       -24.004765 eV

  maximum distance moved by ions :      0.46E-03

    WAVPRE:  cpu time    0.0465: real time    0.0472
    FEWALD:  cpu time    0.0010: real time    0.0010
    ORTHCH:  cpu time    0.0088: real time    0.0088
 Prediction of Wavefunctions ALPHA= 2.189 BETA=-1.226
     LOOP+:  cpu time    2.8724: real time    2.9060


--------------------------------------- Iteration     10(   1)  ---------------------------------------


    POTLOK:  cpu time    0.1309: real time    0.1334
    SETDIJ:  cpu time    0.0021: real time    0.0021
     EDDAV:  cpu time    0.1723: real time    0.1747
       DOS:  cpu time    0.0003: real time    0.0003
    CHARGE:  cpu time    0.0173: real time    0.0175
    MIXING:  cpu time    0.0043: real time    0.0043
    --------------------------------------------
      LOOP:  cpu time    0.3272: real time    0.3323

 eigenvalue-minimisations  :    80
 total energy-change (2. order) : 0.3130590E-02  (-0.3418437E-04)
 number of electron       8.0000005 magnetization 
 augmentation part        0.1860397 magnetization 

 Broyden mixing:
  rms(total) = 0.33041E-03    rms(broyden)= 0.33016E-03
  rms(prec ) = 0.45152E-03
  weight for this iteration     100.00

 Free energy of the ion-electron system (eV)
  ---------------------------------------------------
  alpha Z        PSCENC =         0.24042888
  Ewald energy   TEWEN  =       129.71680517
  -Hartree energ DENC   =      -285.39796920
  -exchange      EXHF   =         0.00000000
  -V(xc)+E(xc)   XCENC  =        24.77064497
  PAW double counting   =       470.96850002     -471.75824276
  entropy T*S    EENTRO =        -0.00000000
  eigenvalues    EBANDS =       -89.59767078
  atomic energy  EATOM  =       197.04175453
  Solvation  Ediel_sol  =         0.00000000
  ---------------------------------------------------
  free energy    TOTEN  =       -24.01574916 eV

  energy without entropy =      -24.01574916  energy(sigma->0) =      -24.01574916


--------------------------------------------------------------------------------------------------------




--------------------------------------- Iteration     10(   2)  ---------------------------------------


    POTLOK:  cpu time    0.1370: real time    0.1383
    SETDIJ:  cpu time    0.0016: real time    0.0017
    EDDIAG:  cpu time    0.0369: real time    0.0375
  RMM-DIIS:  cpu time    0.1546: real time    0.1567
    ORTHCH:  cpu time    0.0018: real time    0.0018
       DOS:  cpu time    0.0002: real time    0.0002
    CHARGE:  cpu time    0.0179: real time    0.0181
    MIXING:  cpu time    0.0044: real time    0.0044
    --------------------------------------------
      LOOP:  cpu time    0.3543: real time    0.3587

 eigenvalue-minimisations  :    62
 total energy-change (2. order) :-0.6599573E-06  (-0.7422576E-06)
 number of electron       8.0000005 magnetization 
 augmentation part        0.1860362 magnetization 

 Broyden mixing:
  rms(total) = 0.15851E-03    rms(broyden)= 0.15816E-03
  rms(prec ) = 0.19175E-03
  weight for this iteration     100.00

 eigenvalues of (default mixing * dielectric matrix)
  average eigenvalue GAMMA=   0.9388
  0.9388

 Free energy of the ion-electron system (eV)
  ---------------------------------------------------
  alpha Z        PSCENC =         0.24042888
  Ewald energy   TEWEN  =       129.71680517
  -Hartree energ DENC   =      -285.40402408
  -exchange      EXHF   =         0.00000000
  -V(xc)+E(xc)   XCENC  =        24.77093476
  PAW double counting   =       470.97904688     -471.76883516
  entropy T*S    EENTRO =        -0.00000000
  eigenvalues    EBANDS =       -89.59186081
  atomic energy  EATOM  =       197.04175453
  Solvation  Ediel_sol  =         0.00000000
  ---------------------------------------------------
  free energy    TOTEN  =       -24.01574982 eV

  energy without entropy =      -24.01574982  energy(sigma->0) =      -24.01574982


--------------------------------------------------------------------------------------------------------




--------------------------------------- Iteration     10(   3)  ---------------------------------------


    POTLOK:  cpu time    0.1321: real time    0.1337
    SETDIJ:  cpu time    0.0017: real time    0.0017
    EDDIAG:  cpu time    0.0374: real time    0.0378
  RMM-DIIS:  cpu time    0.1237: real time    0.1255
    ORTHCH:  cpu time    0.0019: real time    0.0019
       DOS:  cpu time    0.0002: real time    0.0002
    CHARGE:  cpu time    0.0179: real time    0.0182
    MIXING:  cpu time    0.0045: real time    0.0045
    --------------------------------------------
      LOOP:  cpu time    0.3194: real time    0.3235

 eigenvalue-minimisations  :    48
 total energy-change (2. order) :-0.3051643E-06  (-0.3996153E-07)
 number of electron       8.0000005 magnetization 
 augmentation part        0.1860325 magnetization 

 Broyden mixing:
  rms(total) = 0.79778E-04    rms(broyden)= 0.79728E-04
  rms(prec ) = 0.90491E-04
  weight for this iteration     100.00

 eigenvalues of (default mixing * dielectric matrix)
  average eigenvalue GAMMA=   1.3850
  1.3850  1.3850

 Free energy of the ion-electron system (eV)
  ---------------------------------------------------
  alpha Z        PSCENC =         0.24042888
  Ewald energy   TEWEN  =       129.71680517
  -Hartree energ DENC   =      -285.40626237
  -exchange      EXHF   =         0.00000000
  -V(xc)+E(xc)   XCENC  =        24.77105136
  PAW double counting   =       470.95724871     -471.74705097
  entropy T*S    EENTRO =        -0.00000000
  eigenvalues    EBANDS =       -89.58972544
  atomic energy  EATOM  =       197.04175453
  Solvation  Ediel_sol  =         0.00000000
  ---------------------------------------------------
  free energy    TOTEN  =       -24.01575013 eV

  energy without entropy =      -24.01575013  energy(sigma->0) =      -24.01575013


--------------------------------------------------------------------------------------------------------




--------------------------------------- Iteration     10(   4)  ---------------------------------------


    POTLOK:  cpu time    0.1322: real time    0.1344
    SETDIJ:  cpu time    0.0017: real time    0.0017
    EDDIAG:  cpu time    0.0372: real time    0.0377
  RMM-DIIS:  cpu time    0.1236: real time    0.1258
    ORTHCH:  cpu time    0.0017: real time    0.0017
       DOS:  cpu time    0.0002: real time    0.0002
    --------------------------------------------
      LOOP:  cpu time    0.2965: real time    0.3014

 eigenvalue-minimisations  :    48
 total energy-change (2. order) :-0.3565746E-06  (-0.1269449E-07)
 number of electron       8.0000005 magnetization 
 augmentation part        0.1860325 magnetization 

 Free energy of the ion-electron system (eV)
  ---------------------------------------------------
  alpha Z        PSCENC =         0.24042888
  Ewald energy   TEWEN  =       129.71680517
  -Hartree energ DENC   =      -285.40692687
  -exchange      EXHF   =         0.00000000
  -V(xc)+E(xc)   XCENC  =        24.77109186
  PAW double counting   =       470.93427676     -471.72407485
  entropy T*S    EENTRO =        -0.00000000
  eigenvalues    EBANDS =       -89.58910596
  atomic energy  EATOM  =       197.04175453
  Solvation  Ediel_sol  =         0.00000000
  ---------------------------------------------------
  free energy    TOTEN  =       -24.01575049 eV

  energy without entropy =      -24.01575049  energy(sigma->0) =      -24.01575049


--------------------------------------------------------------------------------------------------------




 average (electrostatic) potential at core
  the test charge radii are     0.5201  0.6991
  (the norm of the test charge is              1.0000)
       1 -41.3683       2 -41.4556       3 -41.5431       4 -41.6823       5 -57.9468
 
 
 
 E-fermi :  -8.2322     XC(G=0):  -0.6907     alpha+bet : -0.2091


 k-point     1 :       0.2500    0.2500    0.2500
  band No.  band energies     occupation 
      1     -16.9043      2.00000
      2      -9.3882      2.00000
      3      -9.3027      2.00000
      4      -9.1996      2.00000
      5      -0.3101      0.00000
      6       0.5588      0.00000
      7       0.6750      0.00000
      8       0.7098      0.00000

 k-point     2 :      -0.2500    0.2500    0.2500
  band No.  band energies     occupation 
      1     -16.9044      2.00000
      2      -9.3882      2.00000
      3      -9.3027      2.00000
      4      -9.1994      2.00000
      5      -0.3034      0.00000
      6       0.5455      0.00000
      7       0.6541      0.00000
      8       0.6931      0.00000

 k-point     3 :       0.2500   -0.2500    0.2500
  band No.  band energies     occupation 
      1     -16.9043      2.00000
      2      -9.3881      2.00000
      3      -9.3026      2.00000
      4      -9.1994      2.00000
      5      -0.3102      0.00000
      6       0.5628      0.00000
      7       0.6670      0.00000
      8       0.7109      0.00000

 k-point     4 :      -0.2500   -0.2500    0.2500
  band No.  band energies     occupation 
      1     -16.9043      2.00000
      2      -9.3880      2.00000
      3      -9.3027      2.00000
      4      -9.1994      2.00000
      5      -0.3155      0.00000
      6       0.5721      0.00000
      7       0.6792      0.00000
      8       0.7282      0.00000


--------------------------------------------------------------------------------------------------------


 soft charge-density along one line, spin component           1
         0         1         2         3         4         5         6         7         8         9
 total charge-density along one line
 
 pseudopotential strength for first ion, spin component:           1
 -2.340  -4.032  -0.001  -0.001   0.001
 -4.032  -6.860  -0.003  -0.004   0.002
 -0.001  -0.003  -0.338   0.002  -0.001
 -0.001  -0.004   0.002  -0.337  -0.001
  0.001   0.002  -0.001  -0.001  -0.339
 total augmentation occupancy for first ion, spin component:           1
  3.486  -0.629   0.219   0.324  -0.128
 -0.629   0.127  -0.041  -0.060   0.024
  0.219  -0.041   0.020   0.017  -0.007
  0.324  -0.060   0.017   0.034  -0.010
 -0.128   0.024  -0.007  -0.010   0.012


------------------------ aborting loop because EDIFF is reached ----------------------------------------


    CHARGE:  cpu time    0.0178: real time    0.0181
    FORLOC:  cpu time    0.0131: real time    0.0132
    FORNL :  cpu time    0.0210: real time    0.0211
    STRESS:  cpu time    0.1581: real time    0.1593
    FORCOR:  cpu time    0.1317: real time    0.1353
    FORHAR:  cpu time    0.0452: real time    0.0458
    MIXING:  cpu time    0.0047: real time    0.0047
    OFIELD:  cpu time    0.0000: real time    0.0000

  FORCE on cell =-STRESS in cart. coord.  units (eV):
  Direction    XX          YY          ZZ          XY          YZ          ZX
  --------------------------------------------------------------------------------------
  Alpha Z     0.24043     0.24043     0.24043
  Ewald      42.68054    45.70441    41.33180     1.12521    -1.43058     0.38783
  Hartree    94.87902    97.94531    92.58234     0.55200    -0.22186    -0.07015
  E(xc)     -27.24010   -27.24773   -27.23968     0.00186     0.00215    -0.00201
  Local    -196.44419  -202.44294  -192.40711    -1.49714     1.15333    -0.10539
  n-local   -15.93927   -15.97780   -15.97240    -0.01379     0.05648    -0.02765
  augment     0.11658     0.11492     0.11238    -0.00154     0.00514    -0.00228
  Kinetic   101.21240   101.59802   101.18845    -0.07913    -0.11134     0.09995
  Fock        0.00000     0.00000     0.00000     0.00000     0.00000     0.00000
  -------------------------------------------------------------------------------------
  Total      -0.49458    -0.06536    -0.16380     0.08746    -0.54668     0.28031
  in kB      -0.78645    -0.10393    -0.26046     0.13908    -0.86929     0.44572
  external pressure =       -0.38 kB  Pullay stress =        0.00 kB

  kinetic pressure (ideal gas correction) =      0.01 kB
  total pressure  =     -0.37 kB
  Total+kin.    -0.779      -0.087      -0.245       0.135      -0.870       0.442

 VOLUME and BASIS-vectors are now :
 -----------------------------------------------------------------------------
  energy-cutoff  :      400.00
  volume of cell :     1007.58
      direct lattice vectors                 reciprocal lattice vectors
    10.061477372  0.000000000  0.000000000     0.099388983 -0.002893883 -0.000305595
     0.284728382  9.778854293  0.000000000     0.000000000  0.102261468  0.002953604
     0.022875236 -0.295780155 10.240681013     0.000000000  0.000000000  0.097649756

  length of vectors
    10.061477372  9.782998596 10.244977149     0.099431574  0.102304114  0.097649756


 FORCES acting on ions
    electron-ion (+dipol)            ewald-force                    non-local-force                 convergence-correction
 -----------------------------------------------------------------------------------------------
   -.162E+02 0.279E+02 0.411E+02   0.177E+02 -.305E+02 -.448E+02   -.163E+01 0.280E+01 0.415E+01   -.374E-04 0.608E-04 0.153E-04
   0.521E+02 -.691E+01 0.340E+01   -.574E+02 0.763E+01 -.375E+01   0.537E+01 -.708E+00 0.355E+00   0.475E-04 -.389E-05 -.360E-04
   -.245E+02 -.472E+02 0.638E+00   0.272E+02 0.524E+02 -.711E+00   -.259E+01 -.497E+01 0.763E-01   -.318E-04 -.345E-04 -.384E-04
   -.118E+02 0.258E+02 -.458E+02   0.133E+02 -.290E+02 0.514E+02   -.128E+01 0.279E+01 -.497E+01   -.234E-04 0.396E-04 -.974E-04
   0.621E+00 0.487E+00 0.163E+01   -.764E+00 -.536E+00 -.213E+01   -.956E-01 0.877E-02 -.524E+00   -.400E-04 0.184E-04 -.169E-03
 -----------------------------------------------------------------------------------------------
   0.222E+00 0.744E-01 0.916E+00   0.888E-14 0.355E-14 0.000E+00   -.222E+00 -.741E-01 -.916E+00   -.851E-04 0.805E-04 -.326E-03
 
 
 POSITION                                       TOTAL-FORCE (eV/Angst)
 -----------------------------------------------------------------------------------
      5.54908      3.84012      3.68505        -0.147257      0.202817      0.396440
      4.11443      4.57852      4.48857         0.129411      0.006130      0.001988
      5.70554      5.40092      4.54632         0.076344      0.238501      0.003432
      5.43902      3.91943      5.47319         0.180727     -0.407318      0.625516
      5.20360      4.43389      4.56008        -0.239090     -0.039820     -1.027464
 -----------------------------------------------------------------------------------
    total drift:                                0.000135      0.000310     -0.000088


--------------------------------------------------------------------------------------------------------



  FREE ENERGIE OF THE ION-ELECTRON SYSTEM (eV)
  ---------------------------------------------------
  free  energy   TOTEN  =       -24.01575049 eV

  energy  without entropy=      -24.01575049  energy(sigma->0) =      -24.01575049
 
 d Force =-0.3130939E-02[-0.365E-02,-0.261E-02]  d Energy =-0.3130046E-02-0.894E-06
 d Force =-0.1451277E+00[-0.145E+00,-0.145E+00]  d Ewald  =-0.1451272E+00-0.519E-06


--------------------------------------------------------------------------------------------------------


    POTLOK:  cpu time    0.1346: real time    0.1359


--------------------------------------------------------------------------------------------------------


 stress matrix after NEB project (eV)
     -0.49458      0.08746      0.28031
      0.08746     -0.06536     -0.54668
      0.28031     -0.54668     -0.16380
  FORCES: max atom, RMS     1.055666    0.633051
  FORCE total and by dimension    1.415545    1.027464
  Stress total and by dimension    1.022678    0.546678
           RANDOM_SEED =         581349897               30                0
   IONSTEP:  cpu time    0.0002: real time    0.0002

  ENERGY OF THE ELECTRON-ION-THERMOSTAT SYSTEM (eV)
  ---------------------------------------------------
% ion-electron   TOTEN  =       -24.015750  see above
  kinetic energy EKIN   =         0.011069
  kin. lattice  EKIN_LAT=         0.000000  (temperature   21.41 K)
  nose potential ES     =         0.000000
  nose kinetic   EPS    =         0.000000
  ---------------------------------------------------
  total energy   ETOTAL =       -24.004682 eV

  maximum distance moved by ions :      0.43E-03


 mean value of Nose-termostat <S>:     1.000 mean value of <T> :    23.775
 mean temperature <T/S>/<1/S>  :    23.775

    WAVPRE:  cpu time    0.0500: real time    0.0506
    FEWALD:  cpu time    0.0010: real time    0.0010
    ORTHCH:  cpu time    0.0086: real time    0.0087
 Prediction of Wavefunctions ALPHA= 2.109 BETA=-1.136
    POTLOK:  cpu time    0.1335: real time    0.1355
    EDDIAG:  cpu time    0.0374: real time    0.0380
     LOOP+:  cpu time    2.0588: real time    2.0885
    4ORBIT:  cpu time    0.0000: real time    0.0008

 total amount of memory used by VASP MPI-rank0    54720. kBytes
=======================================================================

   base      :      30000. kBytes
   nonl-proj :       2727. kBytes
   fftplans  :       7847. kBytes
   grid      :      12367. kBytes
   one-center:          6. kBytes
   wavefun   :       1773. kBytes
 
  
  
 General timing and accounting informations for this job:
 ========================================================
  
                  Total CPU time used (sec):       28.540
                            User time (sec):       26.592
                          System time (sec):        1.948
                         Elapsed time (sec):       29.609
  
                   Maximum memory used (kb):      178612.
                   Average memory used (kb):           0.
  
                          Minor page faults:       256794
                          Major page faults:          120
                 Voluntary context switches:          594
