unknown system                          
           1
    10.061477    0.000000    0.000000
     0.284728    9.778854    0.000000
     0.022875   -0.295780   10.240681
   H    C 
   4   1
Direct configuration=     1
   0.53799974  0.40701335  0.36062238
   0.39485185  0.47995949  0.43812088
   0.55219073  0.56619739  0.44310957
   0.52775671  0.41612066  0.53900924
   0.50282285  0.46675655  0.44493211
Direct configuration=     2
   0.53805126  0.40689452  0.36056102
   0.39482492  0.48000082  0.43812647
   0.55212441  0.56616330  0.44313318
   0.52773693  0.41617527  0.53883503
   0.50282797  0.46676129  0.44494929
Direct configuration=     3
   0.53815014  0.40666447  0.36044663
   0.39477282  0.48008219  0.43813723
   0.55199550  0.56609958  0.44317943
   0.52769936  0.41627877  0.53849755
   0.50283794  0.46677036  0.44498217
Direct configuration=     4
   0.53828843  0.40633745  0.36029481
   0.39470092  0.48020122  0.43815273
   0.55180961  0.56601384  0.44324684
   0.52764898  0.41642011  0.53801950
   0.50285208  0.46678305  0.44502770
Direct configuration=     5
   0.53845540  0.40593296  0.36012636
   0.39461635  0.48035456  0.43817235
   0.55157490  0.56591700  0.44333327
   0.52759301  0.41658319  0.53743387
   0.50286942  0.46679844  0.44508166
Direct configuration=     6
   0.53863842  0.40547421  0.35996530
   0.39452787  0.48053790  0.43819538
   0.55130129  0.56582193  0.44343603
   0.52754039  0.41674804  0.53678171
   0.50288871  0.46681556  0.44513889
Direct configuration=     7
   0.53882426  0.40498600  0.35983603
   0.39444455  0.48074620  0.43822107
   0.55100013  0.56574289  0.44355207
   0.52750128  0.41689191  0.53611002
   0.50290851  0.46683347  0.44519378
Direct configuration=     8
   0.53900017  0.40449293  0.35976110
   0.39437520  0.48097389  0.43824869
   0.55068335  0.56569400  0.44367813
   0.52748610  0.41699124  0.53546807
   0.50292727  0.46685136  0.44524067
Direct configuration=     9
   0.53915475  0.40401781  0.35975929
   0.39432753  0.48121507  0.43827763
   0.55036275  0.56568789  0.44381094
   0.52750447  0.41702401  0.53490307
   0.50294353  0.46686862  0.44527439
Direct configuration=    10
   0.53927880  0.40358021  0.35984394
   0.39430740  0.48146372  0.43830737
   0.55004928  0.56573451  0.44394737
   0.52756403  0.41697222  0.53445569
   0.50295602  0.46688478  0.44529076
