 vasp.5.4.4.18Apr17-6-g9f103f2a35 (build Nov 25 2021 15:25:00) complex          
  
 executed on             LinuxIFC date 2022.02.21  10:17:09
 running on   16 total cores
 distrk:  each k-point on   16 cores,    1 groups
 distr:  one band on NCORES_PER_BAND=   4 cores,    4 groups


--------------------------------------------------------------------------------------------------------


 INCAR:
 POTCAR:    PAW_PBE H 15Jun2001                   
 POTCAR:    PAW_PBE C 08Apr2002                   
 POTCAR:    PAW_PBE H 15Jun2001                   
   VRHFIN =H: ultrasoft test                                                    
   LEXCH  = PE                                                                  
   EATOM  =    12.4884 eV,    0.9179 Ry                                         
                                                                                
   TITEL  = PAW_PBE H 15Jun2001                                                 
   LULTRA =        F    use ultrasoft PP ?                                      
   IUNSCR =        0    unscreen: 0-lin 1-nonlin 2-no                           
   RPACOR =    0.000    partial core radius                                     
   POMASS =    1.000; ZVAL   =    1.000    mass and valenz                      
   RCORE  =    1.100    outmost cutoff radius                                   
   RWIGS  =    0.700; RWIGS  =    0.370    wigner-seitz radius (au A)           
   ENMAX  =  250.000; ENMIN  =  200.000 eV                                      
   RCLOC  =    0.701    cutoff for local pot                                    
   LCOR   =        T    correct aug charges                                     
   LPAW   =        T    paw PP                                                  
   EAUG   =  400.000                                                            
   RMAX   =    1.123    core radius for proj-oper                               
   RAUG   =    1.200    factor for augmentation sphere                          
   RDEP   =    1.112    radius for radial grids                                 
   RDEPT  =    0.926    core radius for aug-charge                              
                                                                                
   Atomic configuration                                                         
    2 entries                                                                   
     n  l   j            E        occ.                                          
     1  0  0.50        -6.4927   1.0000                                         
     2  1  0.50        -3.4015   0.0000                                         
   Description                                                                  
     l       E           TYP  RCUT    TYP  RCUT                                 
     0     -6.4927494     23  1.100                                             
     0      6.8029130     23  1.100                                             
     1     -4.0817478     23  1.100                                             
  local pseudopotential read in
  atomic valenz-charges read in
  non local Contribution for L=           0  read in
    real space projection operators read in
  non local Contribution for L=           0  read in
    real space projection operators read in
  non local Contribution for L=           1  read in
    real space projection operators read in
    PAW grid and wavefunctions read in
 
   number of l-projection  operators is LMAX  =           3
   number of lm-projection operators is LMMAX =           5
 
 POTCAR:    PAW_PBE C 08Apr2002                   
   VRHFIN =C: s2p2                                                              
   LEXCH  = PE                                                                  
   EATOM  =   147.1560 eV,   10.8157 Ry                                         
                                                                                
   TITEL  = PAW_PBE C 08Apr2002                                                 
   LULTRA =        F    use ultrasoft PP ?                                      
   IUNSCR =        1    unscreen: 0-lin 1-nonlin 2-no                           
   RPACOR =    1.200    partial core radius                                     
   POMASS =   12.011; ZVAL   =    4.000    mass and valenz                      
   RCORE  =    1.500    outmost cutoff radius                                   
   RWIGS  =    1.630; RWIGS  =    0.863    wigner-seitz radius (au A)           
   ENMAX  =  400.000; ENMIN  =  300.000 eV                                      
   ICORE  =        2    local potential                                         
   LCOR   =        T    correct aug charges                                     
   LPAW   =        T    paw PP                                                  
   EAUG   =  644.873                                                            
   DEXC   =    0.000                                                            
   RMAX   =    1.529    core radius for proj-oper                               
   RAUG   =    1.300    factor for augmentation sphere                          
   RDEP   =    1.501    radius for radial grids                                 
   RDEPT  =    1.300    core radius for aug-charge                              
                                                                                
   Atomic configuration                                                         
    4 entries                                                                   
     n  l   j            E        occ.                                          
     1  0  0.50      -273.3789   2.0000                                         
     2  0  0.50       -13.7508   2.0000                                         
     2  1  0.50        -5.2854   2.0000                                         
     3  2  1.50        -5.4423   0.0000                                         
   Description                                                                  
     l       E           TYP  RCUT    TYP  RCUT                                 
     0    -13.7508458     23  1.200                                             
     0     -8.2022199     23  1.200                                             
     1     -5.2854383     23  1.500                                             
     1     34.0145650     23  1.500                                             
     2     -5.4423304      7  1.500                                             
  local pseudopotential read in
  partial core-charges read in
  partial kinetic energy density read in
  atomic valenz-charges read in
  non local Contribution for L=           0  read in
    real space projection operators read in
  non local Contribution for L=           0  read in
    real space projection operators read in
  non local Contribution for L=           1  read in
    real space projection operators read in
  non local Contribution for L=           1  read in
    real space projection operators read in
    PAW grid and wavefunctions read in
 
   number of l-projection  operators is LMAX  =           4
   number of lm-projection operators is LMMAX =           8
 
  PAW_PBE H 15Jun2001                   :
 energy of atom  1       EATOM=  -12.4884
 kinetic energy error for atom=    0.0098 (will be added to EATOM!!)
  PAW_PBE C 08Apr2002                   :
 energy of atom  2       EATOM= -147.1560
 kinetic energy error for atom=    0.0288 (will be added to EATOM!!)
 
 
 POSCAR:  H  C                                   
  positions in cartesian coordinates
  No initial velocities read in
 exchange correlation table for  LEXCH =        8
   RHO(1)=    0.500       N(1)  =     2000
   RHO(2)=  100.500       N(2)  =     4000

 VTST: version 3.2, (02/03/18)

 CHAIN: initializing optimizer
 
 OPT: Using VASP Dynamics algorithm
 CHAIN: Read ICHAIN            0
 
 POSCAR:  H  C                                   
  positions in cartesian coordinates
  No initial velocities read in
 


--------------------------------------------------------------------------------------------------------


 ion  position               nearest neighbor table
   1  0.538  0.407  0.360-   5 1.09
   2  0.394  0.481  0.439-   5 1.13
   3  0.553  0.565  0.442-   5 1.09
   4  0.528  0.416  0.539-   5 1.07
   5  0.503  0.467  0.445-   4 1.07   1 1.09   3 1.09   2 1.13
 

IMPORTANT INFORMATION: All symmetrisations will be switched off!
NOSYMM: (Re-)initialisation of all symmetry stuff for point group C_1.

 
 

Automatic generation of k-mesh.
 generate k-points for:    2    2    2
Space group operators:
 irot       det(A)        alpha          n_x          n_y          n_z        tau_x        tau_y        tau_z
    1     1.000000     0.000000     1.000000     0.000000     0.000000     0.000000     0.000000     0.000000
 
 Subroutine IBZKPT returns following result:
 ===========================================
 
 Found      4 irreducible k-points:
 
 Following reciprocal coordinates:
            Coordinates               Weight
  0.250000  0.250000  0.250000      2.000000
 -0.250000  0.250000  0.250000      2.000000
  0.250000 -0.250000  0.250000      2.000000
 -0.250000 -0.250000  0.250000      2.000000
 
 Following cartesian coordinates:
            Coordinates               Weight
  0.024382  0.025442  0.025056      2.000000
 -0.024382  0.024776  0.025400      2.000000
  0.024382 -0.024776  0.026017      2.000000
 -0.024382 -0.025442  0.026361      2.000000
 


--------------------------------------------------------------------------------------------------------




 Dimension of arrays:
   k-points           NKPTS =      4   k-points in BZ     NKDIM =      4   number of bands    NBANDS=      8
   number of dos      NEDOS =    301   number of ions     NIONS =      5
   non local maximal  LDIM  =      4   non local SUM 2l+1 LMDIM =      8
   total plane-waves  NPLWV = 313600
   max r-space proj   IRMAX =      1   max aug-charges    IRDMAX=   3927
   dimension x,y,z NGX =    70 NGY =   70 NGZ =   64
   dimension x,y,z NGXF=   140 NGYF=  140 NGZF=  128
   support grid    NGXF=   140 NGYF=  140 NGZF=  128
   ions per type =               4   1
   NGX,Y,Z   is equivalent  to a cutoff of  11.35, 11.69, 10.94 a.u.
   NGXF,Y,Z  is equivalent  to a cutoff of  22.70, 23.37, 21.88 a.u.

 SYSTEM =  unknown system                          
 POSCAR =   H  C                                   

 Startparameter for this run:
   NWRITE =      2    write-flag & timer
   PREC   = a         normal or accurate (medium, high low for compatibility)
   ISTART =      0    job   : 0-new  1-cont  2-samecut
   ICHARG =      2    charge: 1-file 2-atom 10-const
   ISPIN  =      1    spin polarized calculation?
   LNONCOLLINEAR =      F non collinear calculations
   LSORBIT =      F    spin-orbit coupling
   INIWAV =      1    electr: 0-lowe 1-rand  2-diag
   LASPH  =      F    aspherical Exc in radial PAW
   METAGGA=      F    non-selfconsistent MetaGGA calc.

 Electronic Relaxation 1
   ENCUT  =  400.0 eV  29.40 Ry    5.42 a.u.  16.72 16.24 15.86*2*pi/ulx,y,z
   ENINI  =  400.0     initial cutoff
   ENAUG  =  644.9 eV  augmentation charge cutoff
   NELM   =    120;   NELMIN=  4; NELMDL= -5     # of ELM steps 
   EDIFF  = 0.1E-05   stopping-criterion for ELM
   LREAL  =      F    real-space projection
   NLSPLINE    = F    spline interpolate recip. space projectors
   LCOMPAT=      F    compatible to vasp.4.4
   GGA_COMPAT  = T    GGA compatible to vasp.4.4-vasp.4.6
   LMAXPAW     = -100 max onsite density
   LMAXMIX     =    2 max onsite mixed and CHGCAR
   VOSKOWN=      0    Vosko Wilk Nusair interpolation
   ROPT   =    0.00000   0.00000
 Ionic relaxation
   EDIFFG = 0.1E-04   stopping-criterion for IOM
   NSW    =     10    number of steps for IOM
   NBLOCK =      1;   KBLOCK =     10    inner block; outer block 
   IBRION =      0    ionic relax: 0-MD 1-quasi-New 2-CG
   NFREE  =      0    steps in history (QN), initial steepest desc. (CG)
   ISIF   =      2    stress and relaxation
   IWAVPR =     12    prediction:  0-non 1-charg 2-wave 3-comb
   ISYM   =      0    0-nonsym 1-usesym 2-fastsym
   LCORR  =      T    Harris-Foulkes like correction to forces

   POTIM  = 0.5000    time-step for ionic-motion
   TEIN   =    0.0    initial temperature
   TEBEG  =    0.0;   TEEND  =   0.0 temperature during run
   SMASS  =  -3.00    Nose mass-parameter (am)
   estimated Nose-frequenzy (Omega)   =  0.10E-29 period in steps =****** mass=  -0.240E-26a.u.
   SCALEE = 1.0000    scale energy and forces
   NPACO  =    256;   APACO  = 16.0  distance and # of slots for P.C.
   PSTRESS=    0.0 pullay stress

  Mass of Ions in am
   POMASS =   1.00 12.01
  Ionic Valenz
   ZVAL   =   1.00  4.00
  Atomic Wigner-Seitz radii
   RWIGS  =  -1.00 -1.00
  virtual crystal weights 
   VCA    =   1.00  1.00
   NELECT =       8.0000    total number of electrons
   NUPDOWN=      -1.0000    fix difference up-down

 DOS related values:
   EMIN   =  10.00;   EMAX   =-10.00  energy-range for DOS
   EFERMI =   0.00
   ISMEAR =     0;   SIGMA  =   0.20  broadening in eV -4-tet -1-fermi 0-gaus

 Electronic relaxation 2 (details)
   IALGO  =     68    algorithm
   LDIAG  =      T    sub-space diagonalisation (order eigenvalues)
   LSUBROT=      F    optimize rotation matrix (better conditioning)
   TURBO    =      0    0=normal 1=particle mesh
   IRESTART =      0    0=no restart 2=restart with 2 vectors
   NREBOOT  =      0    no. of reboots
   NMIN     =      0    reboot dimension
   EREF     =   0.00    reference energy to select bands
   IMIX   =      4    mixing-type and parameters
     AMIX     =   0.40;   BMIX     =  1.00
     AMIX_MAG =   1.60;   BMIX_MAG =  1.00
     AMIN     =   0.10
     WC   =   100.;   INIMIX=   1;  MIXPRE=   1;  MAXMIX= -45

 Intra band minimization:
   WEIMIN = 0.0010     energy-eigenvalue tresh-hold
   EBREAK =  0.31E-07  absolut break condition
   DEPER  =   0.30     relativ break condition  

   TIME   =   0.40     timestep for ELM

  volume/ion in A,a.u.               =     198.55      1339.88
  Fermi-wavevector in a.u.,A,eV,Ry     =   0.328215  0.620237  1.465691  0.107725
  Thomas-Fermi vector in A             =   1.221612
 
 Write flags
   LWAVE        =      F    write WAVECAR
   LDOWNSAMPLE  =      F    k-point downsampling of WAVECAR
   LCHARG       =      F    write CHGCAR
   LVTOT        =      F    write LOCPOT, total local potential
   LVHAR        =      F    write LOCPOT, Hartree potential only
   LELF         =      F    write electronic localiz. function (ELF)
   LORBIT       =      0    0 simple, 1 ext, 2 COOP (PROOUT), +10 PAW based schemes


 Dipole corrections
   LMONO  =      F    monopole corrections only (constant potential shift)
   LDIPOL =      F    correct potential (dipole corrections)
   IDIPOL =      0    1-x, 2-y, 3-z, 4-all directions 
   EPSILON=  1.0000000 bulk dielectric constant

 Exchange correlation treatment:
   GGA     =    --    GGA type
   LEXCH   =     8    internal setting for exchange type
   VOSKOWN=      0    Vosko Wilk Nusair interpolation
   LHFCALC =     F    Hartree Fock is set to
   LHFONE  =     F    Hartree Fock one center treatment
   AEXX    =    0.0000 exact exchange contribution

 Linear response parameters
   LEPSILON=     F    determine dielectric tensor
   LRPA    =     F    only Hartree local field effects (RPA)
   LNABLA  =     F    use nabla operator in PAW spheres
   LVEL    =     F    velocity operator in full k-point grid
   LINTERFAST=   F  fast interpolation
   KINTER  =     0    interpolate to denser k-point grid
   CSHIFT  =0.1000    complex shift for real part using Kramers Kronig
   OMEGAMAX=  -1.0    maximum frequency
   DEG_THRESHOLD= 0.2000000E-02 threshold for treating states as degnerate
   RTIME   =   -0.100 relaxation time in fs
  (WPLASMAI=    0.000 imaginary part of plasma frequency in eV, 0.658/RTIME)
   DFIELD  = 0.0000000 0.0000000 0.0000000 field for delta impulse in time
 
 Orbital magnetization related:
   ORBITALMAG=     F  switch on orbital magnetization
   LCHIMAG   =     F  perturbation theory with respect to B field
   DQ        =  0.001000  dq finite difference perturbation B field
   LLRAUG    =     F  two centre corrections for induced B field



--------------------------------------------------------------------------------------------------------


 molecular dynamics for ions
   using a microcanonical ensemble
 charge density and potential will be updated during run
 non-spin polarized calculation
 RMM-DIIS sequential band-by-band and
  variant of blocked Davidson during initial phase
 perform sub-space diagonalisation
    before iterative eigenvector-optimisation
 modified Broyden-mixing scheme, WC =      100.0
 initial mixing is a Kerker type mixing with AMIX =  0.4000 and BMIX =      1.0000
 Hartree-type preconditioning will be used
 using additional bands            4
 reciprocal scheme for non local part
 use partial core corrections
 calculate Harris-corrections to forces 
   (improved forces if not selfconsistent)
 use gradient corrections 
 use of overlap-Matrix (Vanderbilt PP)
 Gauss-broadening in eV      SIGMA  =   0.20


--------------------------------------------------------------------------------------------------------


  energy-cutoff  :      400.00
  volume of cell :      992.75
      direct lattice vectors                 reciprocal lattice vectors
    10.253383058  0.000000000  0.000000000     0.097528786  0.001333890 -0.000688755
    -0.136175209  9.956596691  0.000000000     0.000000000  0.100435925 -0.001922404
     0.066128224  0.186129605  9.724336260     0.000000000  0.000000000  0.102834782

  length of vectors
    10.253383058  9.957527873  9.726342214     0.097540339  0.100454321  0.102834782


 
 k-points in units of 2pi/SCALE and weight: read from INCAR                         
   0.02438220  0.02544245  0.02505591       0.250
  -0.02438220  0.02477551  0.02540028       0.250
   0.02438220 -0.02477551  0.02601711       0.250
  -0.02438220 -0.02544245  0.02636149       0.250
 
 k-points in reciprocal lattice and weights: read from INCAR                         
   0.25000000  0.25000000  0.25000000       0.250
  -0.25000000  0.25000000  0.25000000       0.250
   0.25000000 -0.25000000  0.25000000       0.250
  -0.25000000 -0.25000000  0.25000000       0.250
 
 position of ions in fractional coordinates (direct lattice) 
   0.53755158  0.40733604  0.36028794
   0.39425642  0.48067269  0.43866049
   0.55257230  0.56546677  0.44245899
   0.52839725  0.41594500  0.53878847
   0.50345849  0.46714771  0.44524632
 
 position of ions in cartesian coordinates  (Angst):
   5.48007843  4.12274090  3.50356104
   4.00601427  4.86751180  4.26568214
   5.61799196  5.71247924  4.30262003
   5.39684719  4.24168111  5.23936021
   5.12798219  4.73407491  4.32972494
 


--------------------------------------------------------------------------------------------------------


 k-point  1 :   0.2500 0.2500 0.2500  plane waves:   18039
 k-point  2 :  -0.2500 0.2500 0.2500  plane waves:   18033
 k-point  3 :   0.2500-0.2500 0.2500  plane waves:   17991
 k-point  4 :  -0.2500-0.2500 0.2500  plane waves:   18015

 maximum and minimum number of plane-waves per node :      4526     4486

 maximum number of plane-waves:     18039
 maximum index in each direction: 
   IXMAX=   16   IYMAX=   16   IZMAX=   15
   IXMIN=  -16   IYMIN=  -16   IZMIN=  -16


 parallel 3D FFT for wavefunctions:
    minimum data exchange during FFTs selected (reduces bandwidth)
 parallel 3D FFT for charge:
    minimum data exchange during FFTs selected (reduces bandwidth)


 total amount of memory used by VASP MPI-rank0    53496. kBytes
=======================================================================

   base      :      30000. kBytes
   nonl-proj :       2680. kBytes
   fftplans  :       7851. kBytes
   grid      :      12378. kBytes
   one-center:          6. kBytes
   wavefun   :        581. kBytes
 
     INWAV:  cpu time    0.0000: real time    0.0002
 Broyden mixing: mesh for mixing (old mesh)
   NGX = 33   NGY = 33   NGZ = 31
  (NGX  =140   NGY  =140   NGZ  =128)
  gives a total of  33759 points

 initial charge density was supplied:
 charge density of overlapping atoms calculated
 number of electron       8.0000000 magnetization 
 keeping initial charge density in first step


--------------------------------------------------------------------------------------------------------


 Maximum index for augmentation-charges          155 (set IRDMAX)


--------------------------------------------------------------------------------------------------------


 First call to EWALD:  gamma=   0.178
 Maximum number of real-space cells 3x 3x 3
 Maximum number of reciprocal cells 3x 3x 3

    FEWALD:  cpu time    0.0034: real time    0.0034


--------------------------------------- Iteration      1(   1)  ---------------------------------------


    POTLOK:  cpu time    0.1786: real time    0.1917
    SETDIJ:  cpu time    0.0040: real time    0.0048
     EDDAV:  cpu time    0.2211: real time    0.2431
       DOS:  cpu time    0.0005: real time    0.0014
    --------------------------------------------
      LOOP:  cpu time    0.4043: real time    0.4411

 eigenvalue-minimisations  :    96
 total energy-change (2. order) : 0.1580901E+02  (-0.2015056E+03)
 number of electron       8.0000000 magnetization 
 augmentation part        8.0000000 magnetization 

 Free energy of the ion-electron system (eV)
  ---------------------------------------------------
  alpha Z        PSCENC =         0.24402096
  Ewald energy   TEWEN  =       128.94154529
  -Hartree energ DENC   =      -243.96232686
  -exchange      EXHF   =         0.00000000
  -V(xc)+E(xc)   XCENC  =        22.01955369
  PAW double counting   =       117.05815612     -117.66307307
  entropy T*S    EENTRO =        -0.00000000
  eigenvalues    EBANDS =       -87.87061823
  atomic energy  EATOM  =       197.04175453
  Solvation  Ediel_sol  =         0.00000000
  ---------------------------------------------------
  free energy    TOTEN  =        15.80901244 eV

  energy without entropy =       15.80901244  energy(sigma->0) =       15.80901244


--------------------------------------------------------------------------------------------------------




--------------------------------------- Iteration      1(   2)  ---------------------------------------


     EDDAV:  cpu time    0.1615: real time    0.1658
       DOS:  cpu time    0.0003: real time    0.0003
    --------------------------------------------
      LOOP:  cpu time    0.1618: real time    0.1661

 eigenvalue-minimisations  :    64
 total energy-change (2. order) :-0.3802672E+02  (-0.3802672E+02)
 number of electron       8.0000000 magnetization 
 augmentation part        8.0000000 magnetization 

 Free energy of the ion-electron system (eV)
  ---------------------------------------------------
  alpha Z        PSCENC =         0.24402096
  Ewald energy   TEWEN  =       128.94154529
  -Hartree energ DENC   =      -243.96232686
  -exchange      EXHF   =         0.00000000
  -V(xc)+E(xc)   XCENC  =        22.01955369
  PAW double counting   =       117.05815612     -117.66307307
  entropy T*S    EENTRO =        -0.00000000
  eigenvalues    EBANDS =      -125.89733608
  atomic energy  EATOM  =       197.04175453
  Solvation  Ediel_sol  =         0.00000000
  ---------------------------------------------------
  free energy    TOTEN  =       -22.21770541 eV

  energy without entropy =      -22.21770541  energy(sigma->0) =      -22.21770541


--------------------------------------------------------------------------------------------------------




--------------------------------------- Iteration      1(   3)  ---------------------------------------


     EDDAV:  cpu time    0.1628: real time    0.1666
       DOS:  cpu time    0.0004: real time    0.0004
    --------------------------------------------
      LOOP:  cpu time    0.1631: real time    0.1670

 eigenvalue-minimisations  :    64
 total energy-change (2. order) :-0.5124920E+01  (-0.5124920E+01)
 number of electron       8.0000000 magnetization 
 augmentation part        8.0000000 magnetization 

 Free energy of the ion-electron system (eV)
  ---------------------------------------------------
  alpha Z        PSCENC =         0.24402096
  Ewald energy   TEWEN  =       128.94154529
  -Hartree energ DENC   =      -243.96232686
  -exchange      EXHF   =         0.00000000
  -V(xc)+E(xc)   XCENC  =        22.01955369
  PAW double counting   =       117.05815612     -117.66307307
  entropy T*S    EENTRO =        -0.00000000
  eigenvalues    EBANDS =      -131.02225625
  atomic energy  EATOM  =       197.04175453
  Solvation  Ediel_sol  =         0.00000000
  ---------------------------------------------------
  free energy    TOTEN  =       -27.34262559 eV

  energy without entropy =      -27.34262559  energy(sigma->0) =      -27.34262559


--------------------------------------------------------------------------------------------------------




--------------------------------------- Iteration      1(   4)  ---------------------------------------


     EDDAV:  cpu time    0.2785: real time    0.3002
       DOS:  cpu time    0.0006: real time    0.0006
    --------------------------------------------
      LOOP:  cpu time    0.2791: real time    0.3009

 eigenvalue-minimisations  :   128
 total energy-change (2. order) :-0.2123117E+00  (-0.2123117E+00)
 number of electron       8.0000000 magnetization 
 augmentation part        8.0000000 magnetization 

 Free energy of the ion-electron system (eV)
  ---------------------------------------------------
  alpha Z        PSCENC =         0.24402096
  Ewald energy   TEWEN  =       128.94154529
  -Hartree energ DENC   =      -243.96232686
  -exchange      EXHF   =         0.00000000
  -V(xc)+E(xc)   XCENC  =        22.01955369
  PAW double counting   =       117.05815612     -117.66307307
  entropy T*S    EENTRO =        -0.00000000
  eigenvalues    EBANDS =      -131.23456797
  atomic energy  EATOM  =       197.04175453
  Solvation  Ediel_sol  =         0.00000000
  ---------------------------------------------------
  free energy    TOTEN  =       -27.55493730 eV

  energy without entropy =      -27.55493730  energy(sigma->0) =      -27.55493730


--------------------------------------------------------------------------------------------------------




--------------------------------------- Iteration      1(   5)  ---------------------------------------


     EDDAV:  cpu time    0.2926: real time    0.3039
       DOS:  cpu time    0.0003: real time    0.0003
    CHARGE:  cpu time    0.0244: real time    0.0252
    MIXING:  cpu time    0.0044: real time    0.0046
    --------------------------------------------
      LOOP:  cpu time    0.3218: real time    0.3341

 eigenvalue-minimisations  :    96
 total energy-change (2. order) :-0.7669851E-04  (-0.7669855E-04)
 number of electron       8.0000002 magnetization 
 augmentation part        0.2261218 magnetization 

 Broyden mixing:
  rms(total) = 0.87676E+00    rms(broyden)= 0.87653E+00
  rms(prec ) = 0.12341E+01
  weight for this iteration     100.00

 Free energy of the ion-electron system (eV)
  ---------------------------------------------------
  alpha Z        PSCENC =         0.24402096
  Ewald energy   TEWEN  =       128.94154529
  -Hartree energ DENC   =      -243.96232686
  -exchange      EXHF   =         0.00000000
  -V(xc)+E(xc)   XCENC  =        22.01955369
  PAW double counting   =       117.05815612     -117.66307307
  entropy T*S    EENTRO =        -0.00000000
  eigenvalues    EBANDS =      -131.23464467
  atomic energy  EATOM  =       197.04175453
  Solvation  Ediel_sol  =         0.00000000
  ---------------------------------------------------
  free energy    TOTEN  =       -27.55501400 eV

  energy without entropy =      -27.55501400  energy(sigma->0) =      -27.55501400


--------------------------------------------------------------------------------------------------------




--------------------------------------- Iteration      1(   6)  ---------------------------------------


    POTLOK:  cpu time    0.1602: real time    0.1661
    SETDIJ:  cpu time    0.0022: real time    0.0023
    EDDIAG:  cpu time    0.0464: real time    0.0567
  RMM-DIIS:  cpu time    0.2111: real time    0.2161
    ORTHCH:  cpu time    0.0018: real time    0.0018
       DOS:  cpu time    0.0002: real time    0.0002
    CHARGE:  cpu time    0.0209: real time    0.0214
    MIXING:  cpu time    0.0052: real time    0.0070
    --------------------------------------------
      LOOP:  cpu time    0.4481: real time    0.4716

 eigenvalue-minimisations  :    64
 total energy-change (2. order) : 0.2923037E+01  (-0.5445581E+00)
 number of electron       8.0000001 magnetization 
 augmentation part        0.1992836 magnetization 

 Broyden mixing:
  rms(total) = 0.43154E+00    rms(broyden)= 0.43144E+00
  rms(prec ) = 0.55712E+00
  weight for this iteration     100.00

 eigenvalues of (default mixing * dielectric matrix)
  average eigenvalue GAMMA=   1.3062
  1.3062

 Free energy of the ion-electron system (eV)
  ---------------------------------------------------
  alpha Z        PSCENC =         0.24402096
  Ewald energy   TEWEN  =       128.94154529
  -Hartree energ DENC   =      -263.78447056
  -exchange      EXHF   =         0.00000000
  -V(xc)+E(xc)   XCENC  =        23.22280496
  PAW double counting   =       239.20300402     -239.98410590
  entropy T*S    EENTRO =        -0.00000000
  eigenvalues    EBANDS =      -109.51653058
  atomic energy  EATOM  =       197.04175453
  Solvation  Ediel_sol  =         0.00000000
  ---------------------------------------------------
  free energy    TOTEN  =       -24.63197726 eV

  energy without entropy =      -24.63197726  energy(sigma->0) =      -24.63197726


--------------------------------------------------------------------------------------------------------




--------------------------------------- Iteration      1(   7)  ---------------------------------------


    POTLOK:  cpu time    0.1482: real time    0.1525
    SETDIJ:  cpu time    0.0020: real time    0.0021
    EDDIAG:  cpu time    0.0421: real time    0.0433
  RMM-DIIS:  cpu time    0.2035: real time    0.2106
    ORTHCH:  cpu time    0.0020: real time    0.0020
       DOS:  cpu time    0.0002: real time    0.0002
    CHARGE:  cpu time    0.0263: real time    0.0298
    MIXING:  cpu time    0.0049: real time    0.0049
    --------------------------------------------
      LOOP:  cpu time    0.4293: real time    0.4453

 eigenvalue-minimisations  :    64
 total energy-change (2. order) : 0.4959688E+00  (-0.1236356E+00)
 number of electron       8.0000001 magnetization 
 augmentation part        0.1886883 magnetization 

 Broyden mixing:
  rms(total) = 0.22929E+00    rms(broyden)= 0.22922E+00
  rms(prec ) = 0.27592E+00
  weight for this iteration     100.00

 eigenvalues of (default mixing * dielectric matrix)
  average eigenvalue GAMMA=   1.8427
  1.4590  2.2263

 Free energy of the ion-electron system (eV)
  ---------------------------------------------------
  alpha Z        PSCENC =         0.24402096
  Ewald energy   TEWEN  =       128.94154529
  -Hartree energ DENC   =      -275.51895494
  -exchange      EXHF   =         0.00000000
  -V(xc)+E(xc)   XCENC  =        24.08414206
  PAW double counting   =       367.13360401     -367.95466548
  entropy T*S    EENTRO =        -0.00000000
  eigenvalues    EBANDS =       -98.10745490
  atomic energy  EATOM  =       197.04175453
  Solvation  Ediel_sol  =         0.00000000
  ---------------------------------------------------
  free energy    TOTEN  =       -24.13600846 eV

  energy without entropy =      -24.13600846  energy(sigma->0) =      -24.13600846


--------------------------------------------------------------------------------------------------------




--------------------------------------- Iteration      1(   8)  ---------------------------------------


    POTLOK:  cpu time    0.1470: real time    0.1496
    SETDIJ:  cpu time    0.0020: real time    0.0020
    EDDIAG:  cpu time    0.0405: real time    0.0416
  RMM-DIIS:  cpu time    0.2041: real time    0.2092
    ORTHCH:  cpu time    0.0016: real time    0.0016
       DOS:  cpu time    0.0002: real time    0.0002
    CHARGE:  cpu time    0.0201: real time    0.0205
    MIXING:  cpu time    0.0052: real time    0.0053
    --------------------------------------------
      LOOP:  cpu time    0.4205: real time    0.4300

 eigenvalue-minimisations  :    64
 total energy-change (2. order) : 0.1468480E+00  (-0.1630887E-01)
 number of electron       8.0000001 magnetization 
 augmentation part        0.1872880 magnetization 

 Broyden mixing:
  rms(total) = 0.22656E-01    rms(broyden)= 0.22631E-01
  rms(prec ) = 0.52257E-01
  weight for this iteration     100.00

 eigenvalues of (default mixing * dielectric matrix)
  average eigenvalue GAMMA=   1.5493
  2.2475  0.9916  1.4087

 Free energy of the ion-electron system (eV)
  ---------------------------------------------------
  alpha Z        PSCENC =         0.24402096
  Ewald energy   TEWEN  =       128.94154529
  -Hartree energ DENC   =      -280.92495922
  -exchange      EXHF   =         0.00000000
  -V(xc)+E(xc)   XCENC  =        24.62077676
  PAW double counting   =       477.39226979     -478.18130863
  entropy T*S    EENTRO =        -0.00000000
  eigenvalues    EBANDS =       -93.12325994
  atomic energy  EATOM  =       197.04175453
  Solvation  Ediel_sol  =         0.00000000
  ---------------------------------------------------
  free energy    TOTEN  =       -23.98916045 eV

  energy without entropy =      -23.98916045  energy(sigma->0) =      -23.98916045


--------------------------------------------------------------------------------------------------------




--------------------------------------- Iteration      1(   9)  ---------------------------------------


    POTLOK:  cpu time    0.1466: real time    0.1517
    SETDIJ:  cpu time    0.0019: real time    0.0020
    EDDIAG:  cpu time    0.0405: real time    0.0415
  RMM-DIIS:  cpu time    0.2043: real time    0.2105
    ORTHCH:  cpu time    0.0025: real time    0.0025
       DOS:  cpu time    0.0002: real time    0.0002
    CHARGE:  cpu time    0.0204: real time    0.0208
    MIXING:  cpu time    0.0055: real time    0.0085
    --------------------------------------------
      LOOP:  cpu time    0.4219: real time    0.4378

 eigenvalue-minimisations  :    64
 total energy-change (2. order) : 0.5643687E-02  (-0.1109226E-02)
 number of electron       8.0000001 magnetization 
 augmentation part        0.1867149 magnetization 

 Broyden mixing:
  rms(total) = 0.19591E-01    rms(broyden)= 0.19587E-01
  rms(prec ) = 0.40139E-01
  weight for this iteration     100.00

 eigenvalues of (default mixing * dielectric matrix)
  average eigenvalue GAMMA=   2.0946
  2.9996  2.9996  1.0026  1.3764

 Free energy of the ion-electron system (eV)
  ---------------------------------------------------
  alpha Z        PSCENC =         0.24402096
  Ewald energy   TEWEN  =       128.94154529
  -Hartree energ DENC   =      -282.17989254
  -exchange      EXHF   =         0.00000000
  -V(xc)+E(xc)   XCENC  =        24.69013145
  PAW double counting   =       480.80097352     -481.59268797
  entropy T*S    EENTRO =        -0.00000000
  eigenvalues    EBANDS =       -91.92936201
  atomic energy  EATOM  =       197.04175453
  Solvation  Ediel_sol  =         0.00000000
  ---------------------------------------------------
  free energy    TOTEN  =       -23.98351676 eV

  energy without entropy =      -23.98351676  energy(sigma->0) =      -23.98351676


--------------------------------------------------------------------------------------------------------




--------------------------------------- Iteration      1(  10)  ---------------------------------------


    POTLOK:  cpu time    0.2082: real time    0.2144
    SETDIJ:  cpu time    0.0020: real time    0.0020
    EDDIAG:  cpu time    0.0426: real time    0.0428
  RMM-DIIS:  cpu time    0.2106: real time    0.2116
    ORTHCH:  cpu time    0.0019: real time    0.0019
       DOS:  cpu time    0.0002: real time    0.0002
    CHARGE:  cpu time    0.0196: real time    0.0197
    MIXING:  cpu time    0.0090: real time    0.0126
    --------------------------------------------
      LOOP:  cpu time    0.4941: real time    0.5051

 eigenvalue-minimisations  :    64
 total energy-change (2. order) : 0.6068921E-02  (-0.2433797E-02)
 number of electron       8.0000001 magnetization 
 augmentation part        0.1856693 magnetization 

 Broyden mixing:
  rms(total) = 0.27894E-01    rms(broyden)= 0.27892E-01
  rms(prec ) = 0.35332E-01
  weight for this iteration     100.00

 eigenvalues of (default mixing * dielectric matrix)
  average eigenvalue GAMMA=   1.7809
  3.0554  2.4287  1.2210  1.2210  0.9784

 Free energy of the ion-electron system (eV)
  ---------------------------------------------------
  alpha Z        PSCENC =         0.24402096
  Ewald energy   TEWEN  =       128.94154529
  -Hartree energ DENC   =      -284.37629864
  -exchange      EXHF   =         0.00000000
  -V(xc)+E(xc)   XCENC  =        24.76017180
  PAW double counting   =       464.76270282     -465.55792946
  entropy T*S    EENTRO =        -0.00000000
  eigenvalues    EBANDS =       -89.79341515
  atomic energy  EATOM  =       197.04175453
  Solvation  Ediel_sol  =         0.00000000
  ---------------------------------------------------
  free energy    TOTEN  =       -23.97744784 eV

  energy without entropy =      -23.97744784  energy(sigma->0) =      -23.97744784


--------------------------------------------------------------------------------------------------------




--------------------------------------- Iteration      1(  11)  ---------------------------------------


    POTLOK:  cpu time    0.1377: real time    0.1432
    SETDIJ:  cpu time    0.0019: real time    0.0019
    EDDIAG:  cpu time    0.0407: real time    0.0418
  RMM-DIIS:  cpu time    0.1656: real time    0.1703
    ORTHCH:  cpu time    0.0019: real time    0.0020
       DOS:  cpu time    0.0002: real time    0.0003
    CHARGE:  cpu time    0.0201: real time    0.0206
    MIXING:  cpu time    0.0054: real time    0.0055
    --------------------------------------------
      LOOP:  cpu time    0.3735: real time    0.3856

 eigenvalue-minimisations  :    64
 total energy-change (2. order) :-0.5789273E-03  (-0.7438067E-03)
 number of electron       8.0000001 magnetization 
 augmentation part        0.1860113 magnetization 

 Broyden mixing:
  rms(total) = 0.74745E-02    rms(broyden)= 0.74710E-02
  rms(prec ) = 0.13433E-01
  weight for this iteration     100.00

 eigenvalues of (default mixing * dielectric matrix)
  average eigenvalue GAMMA=   2.2444
  4.6462  3.0865  2.4250  1.2918  1.0085  1.0085

 Free energy of the ion-electron system (eV)
  ---------------------------------------------------
  alpha Z        PSCENC =         0.24402096
  Ewald energy   TEWEN  =       128.94154529
  -Hartree energ DENC   =      -284.27644561
  -exchange      EXHF   =         0.00000000
  -V(xc)+E(xc)   XCENC  =        24.77441645
  PAW double counting   =       473.91791878     -474.70585644
  entropy T*S    EENTRO =        -0.00000000
  eigenvalues    EBANDS =       -89.91538074
  atomic energy  EATOM  =       197.04175453
  Solvation  Ediel_sol  =         0.00000000
  ---------------------------------------------------
  free energy    TOTEN  =       -23.97802677 eV

  energy without entropy =      -23.97802677  energy(sigma->0) =      -23.97802677


--------------------------------------------------------------------------------------------------------




--------------------------------------- Iteration      1(  12)  ---------------------------------------


    POTLOK:  cpu time    0.1329: real time    0.1377
    SETDIJ:  cpu time    0.0020: real time    0.0021
    EDDIAG:  cpu time    0.0402: real time    0.0412
  RMM-DIIS:  cpu time    0.1687: real time    0.1735
    ORTHCH:  cpu time    0.0017: real time    0.0017
       DOS:  cpu time    0.0002: real time    0.0002
    CHARGE:  cpu time    0.0198: real time    0.0204
    MIXING:  cpu time    0.0052: real time    0.0053
    --------------------------------------------
      LOOP:  cpu time    0.3708: real time    0.3821

 eigenvalue-minimisations  :    64
 total energy-change (2. order) :-0.9547634E-02  (-0.3680700E-03)
 number of electron       8.0000001 magnetization 
 augmentation part        0.1862438 magnetization 

 Broyden mixing:
  rms(total) = 0.12286E-01    rms(broyden)= 0.12285E-01
  rms(prec ) = 0.16019E-01
  weight for this iteration     100.00

 eigenvalues of (default mixing * dielectric matrix)
  average eigenvalue GAMMA=   2.0045
  4.6936  2.8881  2.4263  1.2235  0.9960  0.9960  0.8083

 Free energy of the ion-electron system (eV)
  ---------------------------------------------------
  alpha Z        PSCENC =         0.24402096
  Ewald energy   TEWEN  =       128.94154529
  -Hartree energ DENC   =      -284.47507568
  -exchange      EXHF   =         0.00000000
  -V(xc)+E(xc)   XCENC  =        24.76674075
  PAW double counting   =       471.03647469     -471.82304214
  entropy T*S    EENTRO =        -0.00000000
  eigenvalues    EBANDS =       -89.71999281
  atomic energy  EATOM  =       197.04175453
  Solvation  Ediel_sol  =         0.00000000
  ---------------------------------------------------
  free energy    TOTEN  =       -23.98757440 eV

  energy without entropy =      -23.98757440  energy(sigma->0) =      -23.98757440


--------------------------------------------------------------------------------------------------------




--------------------------------------- Iteration      1(  13)  ---------------------------------------


    POTLOK:  cpu time    0.1322: real time    0.1374
    SETDIJ:  cpu time    0.0020: real time    0.0022
    EDDIAG:  cpu time    0.0404: real time    0.0420
  RMM-DIIS:  cpu time    0.1679: real time    0.1749
    ORTHCH:  cpu time    0.0016: real time    0.0016
       DOS:  cpu time    0.0002: real time    0.0002
    CHARGE:  cpu time    0.0199: real time    0.0206
    MIXING:  cpu time    0.0054: real time    0.0056
    --------------------------------------------
      LOOP:  cpu time    0.3697: real time    0.3845

 eigenvalue-minimisations  :    64
 total energy-change (2. order) :-0.5301131E-03  (-0.9512898E-04)
 number of electron       8.0000001 magnetization 
 augmentation part        0.1860087 magnetization 

 Broyden mixing:
  rms(total) = 0.49410E-02    rms(broyden)= 0.49408E-02
  rms(prec ) = 0.67231E-02
  weight for this iteration     100.00

 eigenvalues of (default mixing * dielectric matrix)
  average eigenvalue GAMMA=   2.3411
  5.8968  3.8010  2.4680  2.2046  1.2381  1.2381  0.9863  0.8959

 Free energy of the ion-electron system (eV)
  ---------------------------------------------------
  alpha Z        PSCENC =         0.24402096
  Ewald energy   TEWEN  =       128.94154529
  -Hartree energ DENC   =      -284.66548473
  -exchange      EXHF   =         0.00000000
  -V(xc)+E(xc)   XCENC  =        24.77232348
  PAW double counting   =       470.87069939     -471.65965639
  entropy T*S    EENTRO =        -0.00000000
  eigenvalues    EBANDS =       -89.53330706
  atomic energy  EATOM  =       197.04175453
  Solvation  Ediel_sol  =         0.00000000
  ---------------------------------------------------
  free energy    TOTEN  =       -23.98810452 eV

  energy without entropy =      -23.98810452  energy(sigma->0) =      -23.98810452


--------------------------------------------------------------------------------------------------------




--------------------------------------- Iteration      1(  14)  ---------------------------------------


    POTLOK:  cpu time    0.1307: real time    0.1348
    SETDIJ:  cpu time    0.0023: real time    0.0023
    EDDIAG:  cpu time    0.0408: real time    0.0426
  RMM-DIIS:  cpu time    0.1690: real time    0.1754
    ORTHCH:  cpu time    0.0019: real time    0.0019
       DOS:  cpu time    0.0003: real time    0.0003
    CHARGE:  cpu time    0.0197: real time    0.0203
    MIXING:  cpu time    0.0057: real time    0.0059
    --------------------------------------------
      LOOP:  cpu time    0.3704: real time    0.3836

 eigenvalue-minimisations  :    64
 total energy-change (2. order) :-0.2788636E-02  (-0.1255048E-03)
 number of electron       8.0000001 magnetization 
 augmentation part        0.1858788 magnetization 

 Broyden mixing:
  rms(total) = 0.26047E-02    rms(broyden)= 0.26027E-02
  rms(prec ) = 0.34921E-02
  weight for this iteration     100.00

 eigenvalues of (default mixing * dielectric matrix)
  average eigenvalue GAMMA=   2.3275
  6.4011  3.9920  2.5063  2.3637  1.2651  1.2651  1.2480  0.9958  0.9103

 Free energy of the ion-electron system (eV)
  ---------------------------------------------------
  alpha Z        PSCENC =         0.24402096
  Ewald energy   TEWEN  =       128.94154529
  -Hartree energ DENC   =      -284.67956436
  -exchange      EXHF   =         0.00000000
  -V(xc)+E(xc)   XCENC  =        24.76343287
  PAW double counting   =       470.18225403     -470.97260750
  entropy T*S    EENTRO =        -0.00000000
  eigenvalues    EBANDS =       -89.51172900
  atomic energy  EATOM  =       197.04175453
  Solvation  Ediel_sol  =         0.00000000
  ---------------------------------------------------
  free energy    TOTEN  =       -23.99089315 eV

  energy without entropy =      -23.99089315  energy(sigma->0) =      -23.99089315


--------------------------------------------------------------------------------------------------------




--------------------------------------- Iteration      1(  15)  ---------------------------------------


    POTLOK:  cpu time    0.1343: real time    0.1405
    SETDIJ:  cpu time    0.0021: real time    0.0022
    EDDIAG:  cpu time    0.0399: real time    0.0413
  RMM-DIIS:  cpu time    0.1685: real time    0.1756
    ORTHCH:  cpu time    0.0025: real time    0.0026
       DOS:  cpu time    0.0002: real time    0.0002
    CHARGE:  cpu time    0.0189: real time    0.0206
    MIXING:  cpu time    0.0060: real time    0.0066
    --------------------------------------------
      LOOP:  cpu time    0.3724: real time    0.3895

 eigenvalue-minimisations  :    64
 total energy-change (2. order) :-0.3332696E-03  (-0.5847350E-05)
 number of electron       8.0000001 magnetization 
 augmentation part        0.1858602 magnetization 

 Broyden mixing:
  rms(total) = 0.12276E-02    rms(broyden)= 0.12274E-02
  rms(prec ) = 0.16327E-02
  weight for this iteration     100.00

 eigenvalues of (default mixing * dielectric matrix)
  average eigenvalue GAMMA=   2.5218
  7.4902  4.8119  2.8545  2.5713  2.0414  1.2778  1.2778  0.9974  0.9974  0.8989

 Free energy of the ion-electron system (eV)
  ---------------------------------------------------
  alpha Z        PSCENC =         0.24402096
  Ewald energy   TEWEN  =       128.94154529
  -Hartree energ DENC   =      -284.64687035
  -exchange      EXHF   =         0.00000000
  -V(xc)+E(xc)   XCENC  =        24.76193946
  PAW double counting   =       470.25293327     -471.04259787
  entropy T*S    EENTRO =        -0.00000000
  eigenvalues    EBANDS =       -89.54395172
  atomic energy  EATOM  =       197.04175453
  Solvation  Ediel_sol  =         0.00000000
  ---------------------------------------------------
  free energy    TOTEN  =       -23.99122642 eV

  energy without entropy =      -23.99122642  energy(sigma->0) =      -23.99122642


--------------------------------------------------------------------------------------------------------




--------------------------------------- Iteration      1(  16)  ---------------------------------------


    POTLOK:  cpu time    0.1365: real time    0.1470
    SETDIJ:  cpu time    0.0021: real time    0.0022
    EDDIAG:  cpu time    0.0444: real time    0.0460
  RMM-DIIS:  cpu time    0.2220: real time    0.2288
    ORTHCH:  cpu time    0.0137: real time    0.0139
       DOS:  cpu time    0.0002: real time    0.0002
    CHARGE:  cpu time    0.1350: real time    0.1377
    MIXING:  cpu time    0.0469: real time    0.0477
    --------------------------------------------
      LOOP:  cpu time    0.6008: real time    0.6236

 eigenvalue-minimisations  :    64
 total energy-change (2. order) :-0.2019513E-03  (-0.5021925E-05)
 number of electron       8.0000001 magnetization 
 augmentation part        0.1858850 magnetization 

 Broyden mixing:
  rms(total) = 0.36147E-03    rms(broyden)= 0.36117E-03
  rms(prec ) = 0.53474E-03
  weight for this iteration     100.00

 eigenvalues of (default mixing * dielectric matrix)
  average eigenvalue GAMMA=   2.5083
  7.6823  4.7737  3.4169  2.3301  2.1485  1.8493  1.2504  1.2504  1.0264  0.9315
  0.9315

 Free energy of the ion-electron system (eV)
  ---------------------------------------------------
  alpha Z        PSCENC =         0.24402096
  Ewald energy   TEWEN  =       128.94154529
  -Hartree energ DENC   =      -284.62779392
  -exchange      EXHF   =         0.00000000
  -V(xc)+E(xc)   XCENC  =        24.76147082
  PAW double counting   =       470.25147007     -471.04079263
  entropy T*S    EENTRO =        -0.00000000
  eigenvalues    EBANDS =       -89.56310350
  atomic energy  EATOM  =       197.04175453
  Solvation  Ediel_sol  =         0.00000000
  ---------------------------------------------------
  free energy    TOTEN  =       -23.99142837 eV

  energy without entropy =      -23.99142837  energy(sigma->0) =      -23.99142837


--------------------------------------------------------------------------------------------------------




--------------------------------------- Iteration      1(  17)  ---------------------------------------


    POTLOK:  cpu time    0.5263: real time    0.5383
    SETDIJ:  cpu time    0.0045: real time    0.0047
    EDDIAG:  cpu time    0.0412: real time    0.0427
  RMM-DIIS:  cpu time    0.1709: real time    0.1796
    ORTHCH:  cpu time    0.0037: real time    0.0037
       DOS:  cpu time    0.0002: real time    0.0002
    CHARGE:  cpu time    0.0457: real time    0.0488
    MIXING:  cpu time    0.0200: real time    0.0205
    --------------------------------------------
      LOOP:  cpu time    0.8125: real time    0.8384

 eigenvalue-minimisations  :    64
 total energy-change (2. order) :-0.4548766E-04  (-0.2261592E-05)
 number of electron       8.0000001 magnetization 
 augmentation part        0.1858535 magnetization 

 Broyden mixing:
  rms(total) = 0.66475E-03    rms(broyden)= 0.66471E-03
  rms(prec ) = 0.91760E-03
  weight for this iteration     100.00

 eigenvalues of (default mixing * dielectric matrix)
  average eigenvalue GAMMA=   2.5707
  8.3660  5.2603  3.8272  2.5176  2.5176  1.9466  1.2832  1.2832  1.0237  0.9536
  0.9536  0.9158

 Free energy of the ion-electron system (eV)
  ---------------------------------------------------
  alpha Z        PSCENC =         0.24402096
  Ewald energy   TEWEN  =       128.94154529
  -Hartree energ DENC   =      -284.67044517
  -exchange      EXHF   =         0.00000000
  -V(xc)+E(xc)   XCENC  =        24.76360342
  PAW double counting   =       470.25388674     -471.04350969
  entropy T*S    EENTRO =        -0.00000000
  eigenvalues    EBANDS =       -89.52232995
  atomic energy  EATOM  =       197.04175453
  Solvation  Ediel_sol  =         0.00000000
  ---------------------------------------------------
  free energy    TOTEN  =       -23.99147386 eV

  energy without entropy =      -23.99147386  energy(sigma->0) =      -23.99147386


--------------------------------------------------------------------------------------------------------




--------------------------------------- Iteration      1(  18)  ---------------------------------------


    POTLOK:  cpu time    0.2357: real time    0.2444
    SETDIJ:  cpu time    0.0020: real time    0.0020
    EDDIAG:  cpu time    0.0397: real time    0.0412
  RMM-DIIS:  cpu time    0.1675: real time    0.1744
    ORTHCH:  cpu time    0.0015: real time    0.0016
       DOS:  cpu time    0.0002: real time    0.0002
    CHARGE:  cpu time    0.0196: real time    0.0204
    MIXING:  cpu time    0.0066: real time    0.0068
    --------------------------------------------
      LOOP:  cpu time    0.4729: real time    0.4909

 eigenvalue-minimisations  :    64
 total energy-change (2. order) :-0.5891049E-05  (-0.1028615E-05)
 number of electron       8.0000001 magnetization 
 augmentation part        0.1858748 magnetization 

 Broyden mixing:
  rms(total) = 0.12903E-03    rms(broyden)= 0.12884E-03
  rms(prec ) = 0.16730E-03
  weight for this iteration     100.00

 eigenvalues of (default mixing * dielectric matrix)
  average eigenvalue GAMMA=   2.5945
  8.4626  5.4320  4.0029  2.9652  2.4321  2.2043  1.8084  1.2643  1.2643  0.9020
  1.0229  0.9838  0.9838

 Free energy of the ion-electron system (eV)
  ---------------------------------------------------
  alpha Z        PSCENC =         0.24402096
  Ewald energy   TEWEN  =       128.94154529
  -Hartree energ DENC   =      -284.64564552
  -exchange      EXHF   =         0.00000000
  -V(xc)+E(xc)   XCENC  =        24.76241970
  PAW double counting   =       470.23519941     -471.02458063
  entropy T*S    EENTRO =        -0.00000000
  eigenvalues    EBANDS =       -89.54619351
  atomic energy  EATOM  =       197.04175453
  Solvation  Ediel_sol  =         0.00000000
  ---------------------------------------------------
  free energy    TOTEN  =       -23.99147975 eV

  energy without entropy =      -23.99147975  energy(sigma->0) =      -23.99147975


--------------------------------------------------------------------------------------------------------




--------------------------------------- Iteration      1(  19)  ---------------------------------------


    POTLOK:  cpu time    0.1368: real time    0.1435
    SETDIJ:  cpu time    0.0020: real time    0.0021
    EDDIAG:  cpu time    0.0410: real time    0.0426
  RMM-DIIS:  cpu time    0.1390: real time    0.1481
    ORTHCH:  cpu time    0.0025: real time    0.0026
       DOS:  cpu time    0.0002: real time    0.0002
    CHARGE:  cpu time    0.0196: real time    0.0203
    MIXING:  cpu time    0.0066: real time    0.0067
    --------------------------------------------
      LOOP:  cpu time    0.3477: real time    0.3660

 eigenvalue-minimisations  :    48
 total energy-change (2. order) :-0.3773285E-05  (-0.3202057E-07)
 number of electron       8.0000001 magnetization 
 augmentation part        0.1858772 magnetization 

 Broyden mixing:
  rms(total) = 0.77394E-04    rms(broyden)= 0.77363E-04
  rms(prec ) = 0.10856E-03
  weight for this iteration     100.00

 eigenvalues of (default mixing * dielectric matrix)
  average eigenvalue GAMMA=   2.5645
  8.5083  5.5716  4.0102  3.5753  2.4340  2.4340  2.0032  1.2688  1.2688  1.0303
  0.9220  0.9429  0.9671  0.9671

 Free energy of the ion-electron system (eV)
  ---------------------------------------------------
  alpha Z        PSCENC =         0.24402096
  Ewald energy   TEWEN  =       128.94154529
  -Hartree energ DENC   =      -284.64435040
  -exchange      EXHF   =         0.00000000
  -V(xc)+E(xc)   XCENC  =        24.76221601
  PAW double counting   =       470.21708296     -471.00648504
  entropy T*S    EENTRO =        -0.00000000
  eigenvalues    EBANDS =       -89.54726784
  atomic energy  EATOM  =       197.04175453
  Solvation  Ediel_sol  =         0.00000000
  ---------------------------------------------------
  free energy    TOTEN  =       -23.99148353 eV

  energy without entropy =      -23.99148353  energy(sigma->0) =      -23.99148353


--------------------------------------------------------------------------------------------------------




--------------------------------------- Iteration      1(  20)  ---------------------------------------


    POTLOK:  cpu time    0.1489: real time    0.1542
    SETDIJ:  cpu time    0.0020: real time    0.0021
    EDDIAG:  cpu time    0.0443: real time    0.0460
  RMM-DIIS:  cpu time    0.1280: real time    0.2485
    ORTHCH:  cpu time    0.0019: real time    0.0019
       DOS:  cpu time    0.0002: real time    0.0002
    --------------------------------------------
      LOOP:  cpu time    0.3252: real time    0.4530

 eigenvalue-minimisations  :    48
 total energy-change (2. order) :-0.8458266E-06  (-0.1536841E-07)
 number of electron       8.0000001 magnetization 
 augmentation part        0.1858772 magnetization 

 Free energy of the ion-electron system (eV)
  ---------------------------------------------------
  alpha Z        PSCENC =         0.24402096
  Ewald energy   TEWEN  =       128.94154529
  -Hartree energ DENC   =      -284.64583809
  -exchange      EXHF   =         0.00000000
  -V(xc)+E(xc)   XCENC  =        24.76223991
  PAW double counting   =       470.21405619     -471.00349102
  entropy T*S    EENTRO =        -0.00000000
  eigenvalues    EBANDS =       -89.54577215
  atomic energy  EATOM  =       197.04175453
  Solvation  Ediel_sol  =         0.00000000
  ---------------------------------------------------
  free energy    TOTEN  =       -23.99148437 eV

  energy without entropy =      -23.99148437  energy(sigma->0) =      -23.99148437


--------------------------------------------------------------------------------------------------------




 average (electrostatic) potential at core
  the test charge radii are     0.5201  0.6991
  (the norm of the test charge is              1.0000)
       1 -41.5690       2 -41.2563       3 -41.5048       4 -41.7153       5 -57.9526
 
 
 
 E-fermi :  -8.2346     XC(G=0):  -0.7053     alpha+bet : -0.2122


 k-point     1 :       0.2500    0.2500    0.2500
  band No.  band energies     occupation 
      1     -16.9030      2.00000
      2      -9.3577      2.00000
      3      -9.3161      2.00000
      4      -9.1963      2.00000
      5      -0.3149      0.00000
      6       0.5614      0.00000
      7       0.6663      0.00000
      8       0.7219      0.00000

 k-point     2 :      -0.2500    0.2500    0.2500
  band No.  band energies     occupation 
      1     -16.9030      2.00000
      2      -9.3576      2.00000
      3      -9.3160      2.00000
      4      -9.1964      2.00000
      5      -0.3162      0.00000
      6       0.5613      0.00000
      7       0.6762      0.00000
      8       0.7167      0.00000

 k-point     3 :       0.2500   -0.2500    0.2500
  band No.  band energies     occupation 
      1     -16.9029      2.00000
      2      -9.3574      2.00000
      3      -9.3160      2.00000
      4      -9.1962      2.00000
      5      -0.3139      0.00000
      6       0.5617      0.00000
      7       0.6723      0.00000
      8       0.7061      0.00000

 k-point     4 :      -0.2500   -0.2500    0.2500
  band No.  band energies     occupation 
      1     -16.9029      2.00000
      2      -9.3575      2.00000
      3      -9.3160      2.00000
      4      -9.1963      2.00000
      5      -0.3100      0.00000
      6       0.5566      0.00000
      7       0.6550      0.00000
      8       0.7025      0.00000


--------------------------------------------------------------------------------------------------------


 soft charge-density along one line, spin component           1
         0         1         2         3         4         5         6         7         8         9
 total charge-density along one line
 
 pseudopotential strength for first ion, spin component:           1
 -2.342  -4.035  -0.001  -0.001   0.001
 -4.035  -6.867  -0.003  -0.004   0.002
 -0.001  -0.003  -0.337   0.002  -0.001
 -0.001  -0.004   0.002  -0.335  -0.001
  0.001   0.002  -0.001  -0.001  -0.338
 total augmentation occupancy for first ion, spin component:           1
  3.585  -0.644   0.250   0.336  -0.144
 -0.644   0.130  -0.046  -0.062   0.026
  0.250  -0.046   0.024   0.019  -0.008
  0.336  -0.062   0.019   0.036  -0.011
 -0.144   0.026  -0.008  -0.011   0.014


------------------------ aborting loop because EDIFF is reached ----------------------------------------


    CHARGE:  cpu time    0.0195: real time    0.0199
    FORLOC:  cpu time    0.0132: real time    0.0133
    FORNL :  cpu time    0.0206: real time    0.0208
    STRESS:  cpu time    0.1591: real time    0.1620
    FORCOR:  cpu time    0.1395: real time    0.1419
    FORHAR:  cpu time    0.0428: real time    0.0436
    MIXING:  cpu time    0.0066: real time    0.0066
    OFIELD:  cpu time    0.0001: real time    0.0001

  FORCE on cell =-STRESS in cart. coord.  units (eV):
  Direction    XX          YY          ZZ          XY          YZ          ZX
  --------------------------------------------------------------------------------------
  Alpha Z     0.24402     0.24402     0.24402
  Ewald      39.07750    44.14594    45.71809    -1.13487     0.42310     0.94531
  Hartree    92.18503    95.19569    97.26663    -0.46466     0.49673     0.30758
  E(xc)     -27.22030   -27.23194   -27.24715    -0.00466     0.00392     0.00363
  Local    -190.64895  -197.77303  -201.34804     1.42388    -1.03062    -1.06891
  n-local   -15.80945   -15.98251   -16.05579    -0.00144     0.02823    -0.00388
  augment     0.12209     0.11220     0.10936     0.00144     0.00169    -0.00157
  Kinetic   100.55393   101.26014   102.05404     0.23368    -0.20331    -0.18035
  Fock        0.00000     0.00000     0.00000     0.00000     0.00000     0.00000
  -------------------------------------------------------------------------------------
  Total      -1.49613    -0.02947     0.74117     0.05337    -0.28025     0.00181
  in kB      -2.41459    -0.04757     1.19617     0.08613    -0.45229     0.00292
  external pressure =       -0.42 kB  Pullay stress =        0.00 kB

  kinetic pressure (ideal gas correction) =      0.00 kB
  total pressure  =     -0.42 kB
  Total+kin.    -2.415      -0.048       1.196       0.086      -0.452       0.003

 VOLUME and BASIS-vectors are now :
 -----------------------------------------------------------------------------
  energy-cutoff  :      400.00
  volume of cell :      992.75
      direct lattice vectors                 reciprocal lattice vectors
    10.253383058  0.000000000  0.000000000     0.097528786  0.001333890 -0.000688755
    -0.136175209  9.956596691  0.000000000     0.000000000  0.100435925 -0.001922404
     0.066128224  0.186129605  9.724336260     0.000000000  0.000000000  0.102834782

  length of vectors
    10.253383058  9.957527873  9.726342214     0.097540339  0.100454321  0.102834782


 FORCES acting on ions
    electron-ion (+dipol)            ewald-force                    non-local-force                 convergence-correction
 -----------------------------------------------------------------------------------------------
   -.172E+02 0.300E+02 0.406E+02   0.191E+02 -.333E+02 -.452E+02   -.185E+01 0.320E+01 0.428E+01   0.415E-04 -.342E-04 -.292E-04
   0.509E+02 -.608E+01 0.292E+01   -.549E+02 0.653E+01 -.314E+01   0.497E+01 -.598E+00 0.288E+00   -.727E-04 0.871E-06 0.374E-05
   -.236E+02 -.474E+02 0.136E+01   0.261E+02 0.524E+02 -.155E+01   -.248E+01 -.494E+01 0.124E+00   0.532E-04 0.447E-04 0.400E-05
   -.135E+02 0.249E+02 -.461E+02   0.151E+02 -.281E+02 0.520E+02   -.152E+01 0.274E+01 -.503E+01   0.328E-04 -.269E-04 0.410E-04
   0.466E+01 -.203E+01 0.171E+01   -.546E+01 0.243E+01 -.207E+01   -.348E+00 0.190E+00 -.182E+00   0.114E-03 -.333E-04 0.462E-04
 -----------------------------------------------------------------------------------------------
   0.123E+01 -.587E+00 0.525E+00   -.355E-14 0.355E-14 0.000E+00   -.123E+01 0.587E+00 -.525E+00   0.168E-03 -.488E-04 0.658E-04
 
 
 POSITION                                       TOTAL-FORCE (eV/Angst)
 -----------------------------------------------------------------------------------
      5.48008      4.12274      3.50356         0.030008     -0.119893     -0.372486
      4.00601      4.86751      4.26568         1.028397     -0.146383      0.070498
      5.61799      5.71248      4.30262        -0.015701      0.096526     -0.071290
      5.39685      4.24168      5.23936         0.100831     -0.428445      0.916007
      5.12798      4.73407      4.32972        -1.143780      0.597716     -0.542589
 -----------------------------------------------------------------------------------
    total drift:                               -0.000246     -0.000478      0.000140


--------------------------------------------------------------------------------------------------------



  FREE ENERGIE OF THE ION-ELECTRON SYSTEM (eV)
  ---------------------------------------------------
  free  energy   TOTEN  =       -23.99148437 eV

  energy  without entropy=      -23.99148437  energy(sigma->0) =      -23.99148437
 


--------------------------------------------------------------------------------------------------------


    POTLOK:  cpu time    0.1425: real time    0.1448


--------------------------------------------------------------------------------------------------------


 stress matrix after NEB project (eV)
     -1.49613      0.05337      0.00181
      0.05337     -0.02947     -0.28025
      0.00181     -0.28025      0.74117
  FORCES: max atom, RMS     1.399965    0.921452
  FORCE total and by dimension    2.060429    1.143780
  Stress total and by dimension    1.717966    1.496134
           RANDOM_SEED =         581349948                0                0
           RANDOM_SEED =         581349948               30                0
   IONSTEP:  cpu time    0.0036: real time    0.0067

  ENERGY OF THE ELECTRON-ION-THERMOSTAT SYSTEM (eV)
  ---------------------------------------------------
% ion-electron   TOTEN  =       -23.991484  see above
  kinetic energy EKIN   =         0.000741
  kin. lattice  EKIN_LAT=         0.000000  (temperature    1.43 K)
  nose potential ES     =         0.000000
  nose kinetic   EPS    =         0.000000
  ---------------------------------------------------
  total energy   ETOTAL =       -23.990743 eV

  maximum distance moved by ions :      0.25E-03

    WAVPRE:  cpu time    0.0415: real time    0.0423
    FEWALD:  cpu time    0.0008: real time    0.0008
    ORTHCH:  cpu time    0.0091: real time    0.0092
     LOOP+:  cpu time    8.5641: real time    9.0156


--------------------------------------- Iteration      2(   1)  ---------------------------------------


    POTLOK:  cpu time    0.1466: real time    0.1494
    SETDIJ:  cpu time    0.0023: real time    0.0023
     EDDAV:  cpu time    0.1716: real time    0.1748
       DOS:  cpu time    0.0003: real time    0.0003
    CHARGE:  cpu time    0.0193: real time    0.0196
    MIXING:  cpu time    0.0064: real time    0.0065
    --------------------------------------------
      LOOP:  cpu time    0.3466: real time    0.3530

 eigenvalue-minimisations  :    72
 total energy-change (2. order) :-0.5677572E-02  (-0.6313664E-03)
 number of electron       8.0000001 magnetization 
 augmentation part        0.1857637 magnetization 

 Broyden mixing:
  rms(total) = 0.35073E-02    rms(broyden)= 0.35038E-02
  rms(prec ) = 0.40881E-02
  weight for this iteration     100.00

 Free energy of the ion-electron system (eV)
  ---------------------------------------------------
  alpha Z        PSCENC =         0.24402096
  Ewald energy   TEWEN  =       128.86861664
  -Hartree energ DENC   =      -284.61205326
  -exchange      EXHF   =         0.00000000
  -V(xc)+E(xc)   XCENC  =        24.76045343
  PAW double counting   =       470.21782636     -471.00725156
  entropy T*S    EENTRO =        -0.00000000
  eigenvalues    EBANDS =       -89.51052820
  atomic energy  EATOM  =       197.04175453
  Solvation  Ediel_sol  =         0.00000000
  ---------------------------------------------------
  free energy    TOTEN  =       -23.99716110 eV

  energy without entropy =      -23.99716110  energy(sigma->0) =      -23.99716110


--------------------------------------------------------------------------------------------------------




--------------------------------------- Iteration      2(   2)  ---------------------------------------


    POTLOK:  cpu time    0.1437: real time    0.1465
    SETDIJ:  cpu time    0.0021: real time    0.0021
    EDDIAG:  cpu time    0.0409: real time    0.0416
  RMM-DIIS:  cpu time    0.1719: real time    0.1758
    ORTHCH:  cpu time    0.0015: real time    0.0022
       DOS:  cpu time    0.0002: real time    0.0002
    CHARGE:  cpu time    0.0196: real time    0.0203
    MIXING:  cpu time    0.0045: real time    0.0046
    --------------------------------------------
      LOOP:  cpu time    0.3844: real time    0.3933

 eigenvalue-minimisations  :    64
 total energy-change (2. order) : 0.5906207E-05  (-0.1421798E-04)
 number of electron       8.0000001 magnetization 
 augmentation part        0.1857622 magnetization 

 Broyden mixing:
  rms(total) = 0.21733E-02    rms(broyden)= 0.21725E-02
  rms(prec ) = 0.25182E-02
  weight for this iteration     100.00

 eigenvalues of (default mixing * dielectric matrix)
  average eigenvalue GAMMA=   2.1166
  2.1166

 Free energy of the ion-electron system (eV)
  ---------------------------------------------------
  alpha Z        PSCENC =         0.24402096
  Ewald energy   TEWEN  =       128.86861664
  -Hartree energ DENC   =      -284.59868023
  -exchange      EXHF   =         0.00000000
  -V(xc)+E(xc)   XCENC  =        24.75967506
  PAW double counting   =       470.05331178     -470.84256838
  entropy T*S    EENTRO =        -0.00000000
  eigenvalues    EBANDS =       -89.52328557
  atomic energy  EATOM  =       197.04175453
  Solvation  Ediel_sol  =         0.00000000
  ---------------------------------------------------
  free energy    TOTEN  =       -23.99715519 eV

  energy without entropy =      -23.99715519  energy(sigma->0) =      -23.99715519


--------------------------------------------------------------------------------------------------------




--------------------------------------- Iteration      2(   3)  ---------------------------------------


    POTLOK:  cpu time    0.1404: real time    0.1465
    SETDIJ:  cpu time    0.0019: real time    0.0019
    EDDIAG:  cpu time    0.0402: real time    0.0417
  RMM-DIIS:  cpu time    0.1679: real time    0.1754
    ORTHCH:  cpu time    0.0015: real time    0.0015
       DOS:  cpu time    0.0003: real time    0.0004
    CHARGE:  cpu time    0.0195: real time    0.0203
    MIXING:  cpu time    0.0046: real time    0.0047
    --------------------------------------------
      LOOP:  cpu time    0.3764: real time    0.3925

 eigenvalue-minimisations  :    64
 total energy-change (2. order) : 0.2967386E-05  (-0.3079286E-05)
 number of electron       8.0000001 magnetization 
 augmentation part        0.1857828 magnetization 

 Broyden mixing:
  rms(total) = 0.36757E-03    rms(broyden)= 0.36669E-03
  rms(prec ) = 0.47647E-03
  weight for this iteration     100.00

 eigenvalues of (default mixing * dielectric matrix)
  average eigenvalue GAMMA=   1.6286
  1.0466  2.2107

 Free energy of the ion-electron system (eV)
  ---------------------------------------------------
  alpha Z        PSCENC =         0.24402096
  Ewald energy   TEWEN  =       128.86861664
  -Hartree energ DENC   =      -284.58392032
  -exchange      EXHF   =         0.00000000
  -V(xc)+E(xc)   XCENC  =        24.75881329
  PAW double counting   =       469.75881791     -470.54784782
  entropy T*S    EENTRO =        -0.00000000
  eigenvalues    EBANDS =       -89.53740743
  atomic energy  EATOM  =       197.04175453
  Solvation  Ediel_sol  =         0.00000000
  ---------------------------------------------------
  free energy    TOTEN  =       -23.99715222 eV

  energy without entropy =      -23.99715222  energy(sigma->0) =      -23.99715222


--------------------------------------------------------------------------------------------------------




--------------------------------------- Iteration      2(   4)  ---------------------------------------


    POTLOK:  cpu time    0.1406: real time    0.1459
    SETDIJ:  cpu time    0.0019: real time    0.0020
    EDDIAG:  cpu time    0.0406: real time    0.0422
  RMM-DIIS:  cpu time    0.1332: real time    0.1392
    ORTHCH:  cpu time    0.0015: real time    0.0018
       DOS:  cpu time    0.0002: real time    0.0002
    --------------------------------------------
      LOOP:  cpu time    0.3181: real time    0.3312

 eigenvalue-minimisations  :    48
 total energy-change (2. order) : 0.4695819E-06  (-0.7333351E-07)
 number of electron       8.0000001 magnetization 
 augmentation part        0.1857828 magnetization 

 Free energy of the ion-electron system (eV)
  ---------------------------------------------------
  alpha Z        PSCENC =         0.24402096
  Ewald energy   TEWEN  =       128.86861664
  -Hartree energ DENC   =      -284.58789491
  -exchange      EXHF   =         0.00000000
  -V(xc)+E(xc)   XCENC  =        24.75899769
  PAW double counting   =       469.73023082     -470.51930831
  entropy T*S    EENTRO =        -0.00000000
  eigenvalues    EBANDS =       -89.53356918
  atomic energy  EATOM  =       197.04175453
  Solvation  Ediel_sol  =         0.00000000
  ---------------------------------------------------
  free energy    TOTEN  =       -23.99715175 eV

  energy without entropy =      -23.99715175  energy(sigma->0) =      -23.99715175


--------------------------------------------------------------------------------------------------------




 average (electrostatic) potential at core
  the test charge radii are     0.5201  0.6991
  (the norm of the test charge is              1.0000)
       1 -41.5616       2 -41.2733       3 -41.5034       4 -41.6929       5 -57.9543
 
 
 
 E-fermi :  -8.2302     XC(G=0):  -0.6942     alpha+bet : -0.2122


 k-point     1 :       0.2500    0.2500    0.2500
  band No.  band energies     occupation 
      1     -16.8997      2.00000
      2      -9.3530      2.00000
      3      -9.3105      2.00000
      4      -9.2039      2.00000
      5      -0.3110      0.00000
      6       0.5764      0.00000
      7       0.6735      0.00000
      8       0.7275      0.00000

 k-point     2 :      -0.2500    0.2500    0.2500
  band No.  band energies     occupation 
      1     -16.8997      2.00000
      2      -9.3529      2.00000
      3      -9.3104      2.00000
      4      -9.2039      2.00000
      5      -0.3122      0.00000
      6       0.5755      0.00000
      7       0.6822      0.00000
      8       0.7241      0.00000

 k-point     3 :       0.2500   -0.2500    0.2500
  band No.  band energies     occupation 
      1     -16.8996      2.00000
      2      -9.3528      2.00000
      3      -9.3104      2.00000
      4      -9.2037      2.00000
      5      -0.3099      0.00000
      6       0.5741      0.00000
      7       0.6797      0.00000
      8       0.7137      0.00000

 k-point     4 :      -0.2500   -0.2500    0.2500
  band No.  band energies     occupation 
      1     -16.8996      2.00000
      2      -9.3529      2.00000
      3      -9.3104      2.00000
      4      -9.2039      2.00000
      5      -0.3060      0.00000
      6       0.5696      0.00000
      7       0.6629      0.00000
      8       0.7094      0.00000


--------------------------------------------------------------------------------------------------------


 soft charge-density along one line, spin component           1
         0         1         2         3         4         5         6         7         8         9
 total charge-density along one line
 
 pseudopotential strength for first ion, spin component:           1
 -2.341  -4.035  -0.001  -0.001   0.001
 -4.035  -6.867  -0.003  -0.004   0.002
 -0.001  -0.003  -0.337   0.002  -0.001
 -0.001  -0.004   0.002  -0.335  -0.001
  0.001   0.002  -0.001  -0.001  -0.338
 total augmentation occupancy for first ion, spin component:           1
  3.582  -0.644   0.249   0.335  -0.144
 -0.644   0.130  -0.046  -0.062   0.026
  0.249  -0.046   0.024   0.019  -0.008
  0.335  -0.062   0.019   0.036  -0.011
 -0.144   0.026  -0.008  -0.011   0.014


------------------------ aborting loop because EDIFF is reached ----------------------------------------


    CHARGE:  cpu time    0.0197: real time    0.0206
    FORLOC:  cpu time    0.0134: real time    0.0137
    FORNL :  cpu time    0.0204: real time    0.0208
    STRESS:  cpu time    0.1602: real time    0.1646
    FORCOR:  cpu time    0.1415: real time    0.1461
    FORHAR:  cpu time    0.0459: real time    0.0477
    MIXING:  cpu time    0.0060: real time    0.0061
    OFIELD:  cpu time    0.0000: real time    0.0000

  FORCE on cell =-STRESS in cart. coord.  units (eV):
  Direction    XX          YY          ZZ          XY          YZ          ZX
  --------------------------------------------------------------------------------------
  Alpha Z     0.24402     0.24402     0.24402
  Ewald      39.16797    44.08003    45.62060    -1.11187     0.44867     0.91968
  Hartree    92.12610    95.18189    97.28568    -0.46137     0.48684     0.30607
  E(xc)     -27.21735   -27.22832   -27.24295    -0.00460     0.00371     0.00360
  Local    -190.61805  -197.71647  -201.32939     1.40521    -1.02781    -1.05163
  n-local   -15.81164   -15.97225   -16.03937    -0.00167     0.02580    -0.00324
  augment     0.12156     0.11249     0.11015     0.00135     0.00145    -0.00145
  Kinetic   100.56843   101.23463   101.99695     0.22983    -0.19286    -0.17839
  Fock        0.00000     0.00000     0.00000     0.00000     0.00000     0.00000
  -------------------------------------------------------------------------------------
  Total      -1.41895    -0.06398     0.64570     0.05689    -0.25422    -0.00536
  in kB      -2.29002    -0.10326     1.04208     0.09181    -0.41028    -0.00864
  external pressure =       -0.45 kB  Pullay stress =        0.00 kB

  kinetic pressure (ideal gas correction) =      0.00 kB
  total pressure  =     -0.45 kB
  Total+kin.    -2.285      -0.102       1.046       0.091      -0.412      -0.008

 VOLUME and BASIS-vectors are now :
 -----------------------------------------------------------------------------
  energy-cutoff  :      400.00
  volume of cell :      992.75
      direct lattice vectors                 reciprocal lattice vectors
    10.253383058  0.000000000  0.000000000     0.097528786  0.001333890 -0.000688755
    -0.136175209  9.956596691  0.000000000     0.000000000  0.100435925 -0.001922404
     0.066128224  0.186129605  9.724336260     0.000000000  0.000000000  0.102834782

  length of vectors
    10.253383058  9.957527873  9.726342214     0.097540339  0.100454321  0.102834782


 FORCES acting on ions
    electron-ion (+dipol)            ewald-force                    non-local-force                 convergence-correction
 -----------------------------------------------------------------------------------------------
   -.172E+02 0.299E+02 0.406E+02   0.190E+02 -.332E+02 -.452E+02   -.184E+01 0.319E+01 0.427E+01   -.559E-03 0.126E-04 -.942E-03
   0.510E+02 -.608E+01 0.293E+01   -.551E+02 0.655E+01 -.315E+01   0.501E+01 -.601E+00 0.289E+00   -.100E-02 0.374E-03 -.361E-03
   -.236E+02 -.474E+02 0.136E+01   0.261E+02 0.524E+02 -.155E+01   -.248E+01 -.494E+01 0.124E+00   -.465E-03 0.922E-03 -.353E-03
   -.135E+02 0.249E+02 -.460E+02   0.151E+02 -.280E+02 0.518E+02   -.151E+01 0.272E+01 -.500E+01   -.549E-03 -.387E-05 0.496E-03
   0.440E+01 -.189E+01 0.159E+01   -.514E+01 0.226E+01 -.192E+01   -.302E+00 0.163E+00 -.156E+00   -.461E-02 0.242E-02 -.229E-02
 -----------------------------------------------------------------------------------------------
[...]
      5.61647      5.71795      4.29747        -0.027681     -0.055007     -0.013102
      5.39815      4.22144      5.28591        -0.215103      0.344443     -0.609569
      5.12339      4.73638      4.32768         1.233365     -0.550232      0.468927
 -----------------------------------------------------------------------------------
    total drift:                               -0.000227     -0.000196     -0.000060


--------------------------------------------------------------------------------------------------------



  FREE ENERGIE OF THE ION-ELECTRON SYSTEM (eV)
  ---------------------------------------------------
  free  energy   TOTEN  =       -24.00667942 eV

  energy  without entropy=      -24.00667942  energy(sigma->0) =      -24.00667942
 
 d Force =-0.9925293E-02[-0.116E-01,-0.825E-02]  d Energy =-0.9919484E-02-0.581E-05
 d Force = 0.5080391E-01[ 0.464E-01, 0.552E-01]  d Ewald  = 0.5080856E-01-0.465E-05


--------------------------------------------------------------------------------------------------------


    POTLOK:  cpu time    0.1447: real time    0.1453


--------------------------------------------------------------------------------------------------------


 stress matrix after NEB project (eV)
      0.44055      0.03756     -0.06638
      0.03756     -0.70835      0.17727
     -0.06638      0.17727     -1.11676
  FORCES: max atom, RMS     1.429629    0.831785
  FORCE total and by dimension    1.859929    1.233365
  Stress total and by dimension    1.420384    1.116764
           RANDOM_SEED =         581349948               30                0
   IONSTEP:  cpu time    0.0003: real time    0.0003

  ENERGY OF THE ELECTRON-ION-THERMOSTAT SYSTEM (eV)
  ---------------------------------------------------
% ion-electron   TOTEN  =       -24.006679  see above
  kinetic energy EKIN   =         0.015648
  kin. lattice  EKIN_LAT=         0.000000  (temperature   30.27 K)
  nose potential ES     =         0.000000
  nose kinetic   EPS    =         0.000000
  ---------------------------------------------------
  total energy   ETOTAL =       -23.991031 eV

  maximum distance moved by ions :      0.48E-03

    WAVPRE:  cpu time    0.0496: real time    0.0506
    FEWALD:  cpu time    0.0005: real time    0.0005
    ORTHCH:  cpu time    0.0088: real time    0.0088
 Prediction of Wavefunctions ALPHA= 2.172 BETA=-1.210
     LOOP+:  cpu time    2.7649: real time    2.8193


--------------------------------------- Iteration     10(   1)  ---------------------------------------


    POTLOK:  cpu time    0.1414: real time    0.1441
    SETDIJ:  cpu time    0.0023: real time    0.0024
     EDDAV:  cpu time    0.1896: real time    0.1922
       DOS:  cpu time    0.0003: real time    0.0003
    CHARGE:  cpu time    0.0185: real time    0.0188
    MIXING:  cpu time    0.0051: real time    0.0067
    --------------------------------------------
      LOOP:  cpu time    0.3573: real time    0.3645

 eigenvalue-minimisations  :    80
 total energy-change (2. order) : 0.8587313E-02  (-0.7704193E-04)
 number of electron       8.0000005 magnetization 
 augmentation part        0.1846524 magnetization 

 Broyden mixing:
  rms(total) = 0.31694E-03    rms(broyden)= 0.31570E-03
  rms(prec ) = 0.33962E-03
  weight for this iteration     100.00

 Free energy of the ion-electron system (eV)
  ---------------------------------------------------
  alpha Z        PSCENC =         0.24402096
  Ewald energy   TEWEN  =       127.95829660
  -Hartree energ DENC   =      -283.78264595
  -exchange      EXHF   =         0.00000000
  -V(xc)+E(xc)   XCENC  =        24.71659389
  PAW double counting   =       464.46346625     -465.24942491
  entropy T*S    EENTRO =        -0.00000000
  eigenvalues    EBANDS =       -89.39015268
  atomic energy  EATOM  =       197.04175453
  Solvation  Ediel_sol  =         0.00000000
  ---------------------------------------------------
  free energy    TOTEN  =       -23.99809130 eV

  energy without entropy =      -23.99809130  energy(sigma->0) =      -23.99809130


--------------------------------------------------------------------------------------------------------




--------------------------------------- Iteration     10(   2)  ---------------------------------------


    POTLOK:  cpu time    0.1473: real time    0.1500
    SETDIJ:  cpu time    0.0021: real time    0.0021
    EDDIAG:  cpu time    0.0414: real time    0.0419
  RMM-DIIS:  cpu time    0.1698: real time    0.1742
    ORTHCH:  cpu time    0.0015: real time    0.0015
       DOS:  cpu time    0.0002: real time    0.0002
    CHARGE:  cpu time    0.0188: real time    0.0192
    MIXING:  cpu time    0.0046: real time    0.0046
    --------------------------------------------
      LOOP:  cpu time    0.3857: real time    0.3937

 eigenvalue-minimisations  :    60
 total energy-change (2. order) :-0.1417554E-05  (-0.1361338E-05)
 number of electron       8.0000005 magnetization 
 augmentation part        0.1846654 magnetization 

 Broyden mixing:
  rms(total) = 0.24734E-03    rms(broyden)= 0.24699E-03
  rms(prec ) = 0.26229E-03
  weight for this iteration     100.00

 eigenvalues of (default mixing * dielectric matrix)
  average eigenvalue GAMMA=   0.6535
  0.6535

 Free energy of the ion-electron system (eV)
  ---------------------------------------------------
  alpha Z        PSCENC =         0.24402096
  Ewald energy   TEWEN  =       127.95829660
  -Hartree energ DENC   =      -283.78328497
  -exchange      EXHF   =         0.00000000
  -V(xc)+E(xc)   XCENC  =        24.71657972
  PAW double counting   =       464.41440196     -465.20032867
  entropy T*S    EENTRO =        -0.00000000
  eigenvalues    EBANDS =       -89.38953287
  atomic energy  EATOM  =       197.04175453
  Solvation  Ediel_sol  =         0.00000000
  ---------------------------------------------------
  free energy    TOTEN  =       -23.99809272 eV

  energy without entropy =      -23.99809272  energy(sigma->0) =      -23.99809272


--------------------------------------------------------------------------------------------------------




--------------------------------------- Iteration     10(   3)  ---------------------------------------


    POTLOK:  cpu time    0.1400: real time    0.1419
    SETDIJ:  cpu time    0.0021: real time    0.0021
    EDDIAG:  cpu time    0.0402: real time    0.0410
  RMM-DIIS:  cpu time    0.1374: real time    0.1415
    ORTHCH:  cpu time    0.0015: real time    0.0015
       DOS:  cpu time    0.0002: real time    0.0002
    CHARGE:  cpu time    0.0193: real time    0.0196
    MIXING:  cpu time    0.0050: real time    0.0050
    --------------------------------------------
      LOOP:  cpu time    0.3456: real time    0.3528

 eigenvalue-minimisations  :    48
 total energy-change (2. order) :-0.9876854E-07  (-0.2634372E-07)
 number of electron       8.0000005 magnetization 
 augmentation part        0.1846654 magnetization 

 Broyden mixing:
  rms(total) = 0.18697E-03    rms(broyden)= 0.18695E-03
  rms(prec ) = 0.19840E-03
  weight for this iteration     100.00

 eigenvalues of (default mixing * dielectric matrix)
  average eigenvalue GAMMA=   1.7452
  1.0484  2.4421

 Free energy of the ion-electron system (eV)
  ---------------------------------------------------
  alpha Z        PSCENC =         0.24402096
  Ewald energy   TEWEN  =       127.95829660
  -Hartree energ DENC   =      -283.78358697
  -exchange      EXHF   =         0.00000000
  -V(xc)+E(xc)   XCENC  =        24.71660202
  PAW double counting   =       464.37829247     -465.16421843
  entropy T*S    EENTRO =        -0.00000000
  eigenvalues    EBANDS =       -89.38925400
  atomic energy  EATOM  =       197.04175453
  Solvation  Ediel_sol  =         0.00000000
  ---------------------------------------------------
  free energy    TOTEN  =       -23.99809282 eV

  energy without entropy =      -23.99809282  energy(sigma->0) =      -23.99809282


--------------------------------------------------------------------------------------------------------




--------------------------------------- Iteration     10(   4)  ---------------------------------------


    POTLOK:  cpu time    0.1425: real time    0.1454
    SETDIJ:  cpu time    0.0020: real time    0.0021
    EDDIAG:  cpu time    0.0401: real time    0.0408
  RMM-DIIS:  cpu time    0.1313: real time    0.1350
    ORTHCH:  cpu time    0.0015: real time    0.0015
       DOS:  cpu time    0.0002: real time    0.0002
    --------------------------------------------
      LOOP:  cpu time    0.3176: real time    0.3250

 eigenvalue-minimisations  :    43
 total energy-change (2. order) :-0.4698200E-06  (-0.6198089E-08)
 number of electron       8.0000005 magnetization 
 augmentation part        0.1846654 magnetization 

 Free energy of the ion-electron system (eV)
  ---------------------------------------------------
  alpha Z        PSCENC =         0.24402096
  Ewald energy   TEWEN  =       127.95829660
  -Hartree energ DENC   =      -283.78424114
  -exchange      EXHF   =         0.00000000
  -V(xc)+E(xc)   XCENC  =        24.71666268
  PAW double counting   =       464.27674054     -465.06266295
  entropy T*S    EENTRO =        -0.00000000
  eigenvalues    EBANDS =       -89.38866452
  atomic energy  EATOM  =       197.04175453
  Solvation  Ediel_sol  =         0.00000000
  ---------------------------------------------------
  free energy    TOTEN  =       -23.99809329 eV

  energy without entropy =      -23.99809329  energy(sigma->0) =      -23.99809329


--------------------------------------------------------------------------------------------------------




 average (electrostatic) potential at core
  the test charge radii are     0.5201  0.6991
  (the norm of the test charge is              1.0000)
       1 -41.4119       2 -41.7710       3 -41.4758       4 -41.2764       5 -57.9788
 
 
 
 E-fermi :  -8.2185     XC(G=0):  -0.7046     alpha+bet : -0.2122


 k-point     1 :       0.2500    0.2500    0.2500
  band No.  band energies     occupation 
      1     -16.8673      2.00000
      2      -9.4233      2.00000
      3      -9.2573      2.00000
      4      -9.1466      2.00000
      5      -0.3194      0.00000
      6       0.5685      0.00000
      7       0.6705      0.00000
      8       0.7179      0.00000

 k-point     2 :      -0.2500    0.2500    0.2500
  band No.  band energies     occupation 
      1     -16.8673      2.00000
      2      -9.4233      2.00000
      3      -9.2573      2.00000
      4      -9.1466      2.00000
      5      -0.3206      0.00000
      6       0.5687      0.00000
      7       0.6769      0.00000
      8       0.7152      0.00000

 k-point     3 :       0.2500   -0.2500    0.2500
  band No.  band energies     occupation 
      1     -16.8672      2.00000
      2      -9.4231      2.00000
      3      -9.2571      2.00000
      4      -9.1465      2.00000
      5      -0.3174      0.00000
      6       0.5618      0.00000
      7       0.6739      0.00000
      8       0.7068      0.00000

 k-point     4 :      -0.2500   -0.2500    0.2500
  band No.  band energies     occupation 
      1     -16.8672      2.00000
      2      -9.4233      2.00000
      3      -9.2572      2.00000
      4      -9.1465      2.00000
      5      -0.3137      0.00000
      6       0.5564      0.00000
      7       0.6601      0.00000
      8       0.7027      0.00000


--------------------------------------------------------------------------------------------------------


 soft charge-density along one line, spin component           1
         0         1         2         3         4         5         6         7         8         9
 total charge-density along one line
 
 pseudopotential strength for first ion, spin component:           1
 -2.340  -4.032  -0.001  -0.001   0.001
 -4.032  -6.862  -0.003  -0.004   0.002
 -0.001  -0.003  -0.338   0.002  -0.001
 -0.001  -0.004   0.002  -0.337  -0.001
  0.001   0.002  -0.001  -0.001  -0.339
 total augmentation occupancy for first ion, spin component:           1
  3.507  -0.633   0.233   0.320  -0.135
 -0.633   0.128  -0.043  -0.059   0.025
  0.233  -0.043   0.022   0.018  -0.008
  0.320  -0.059   0.018   0.033  -0.010
 -0.135   0.025  -0.008  -0.010   0.013


------------------------ aborting loop because EDIFF is reached ----------------------------------------


    CHARGE:  cpu time    0.0188: real time    0.0194
    FORLOC:  cpu time    0.0135: real time    0.0137
    FORNL :  cpu time    0.0208: real time    0.0210
    STRESS:  cpu time    0.1590: real time    0.1615
    FORCOR:  cpu time    0.1436: real time    0.1457
    FORHAR:  cpu time    0.0496: real time    0.0504
    MIXING:  cpu time    0.0050: real time    0.0052
    OFIELD:  cpu time    0.0001: real time    0.0000

  FORCE on cell =-STRESS in cart. coord.  units (eV):
  Direction    XX          YY          ZZ          XY          YZ          ZX
  --------------------------------------------------------------------------------------
  Alpha Z     0.24402     0.24402     0.24402
  Ewald      41.18656    42.57178    44.19994    -0.40135     0.79219     0.19299
  Hartree    90.84455    94.98375    97.95621    -0.28541     0.26667     0.18236
  E(xc)     -27.18828   -27.18195   -27.18162    -0.00104    -0.00059     0.00109
  Local    -189.81296  -196.56988  -201.71174     0.65898    -0.85839    -0.38747
  n-local   -15.95174   -15.81526   -15.75784    -0.00276    -0.02346     0.00661
  augment     0.10612     0.11979     0.12469     0.00031    -0.00183     0.00009
  Kinetic   101.20422   100.89431   100.86614     0.05442     0.03479    -0.05622
  Fock        0.00000     0.00000     0.00000     0.00000     0.00000     0.00000
  -------------------------------------------------------------------------------------
  Total       0.63249    -0.75344    -1.26020     0.02316     0.20938    -0.06055
  in kB       1.02077    -1.21597    -2.03381     0.03738     0.33792    -0.09772
  external pressure =       -0.74 kB  Pullay stress =        0.00 kB

  kinetic pressure (ideal gas correction) =      0.01 kB
  total pressure  =     -0.73 kB
  Total+kin.     1.038      -1.214      -2.017       0.035       0.333      -0.098

 VOLUME and BASIS-vectors are now :
 -----------------------------------------------------------------------------
  energy-cutoff  :      400.00
  volume of cell :      992.75
      direct lattice vectors                 reciprocal lattice vectors
    10.253383058  0.000000000  0.000000000     0.097528786  0.001333890 -0.000688755
    -0.136175209  9.956596691  0.000000000     0.000000000  0.100435925 -0.001922404
     0.066128224  0.186129605  9.724336260     0.000000000  0.000000000  0.102834782

  length of vectors
    10.253383058  9.957527873  9.726342214     0.097540339  0.100454321  0.102834782


 FORCES acting on ions
    electron-ion (+dipol)            ewald-force                    non-local-force                 convergence-correction
 -----------------------------------------------------------------------------------------------
   -.168E+02 0.292E+02 0.400E+02   0.184E+02 -.320E+02 -.439E+02   -.172E+01 0.298E+01 0.408E+01   -.988E-05 0.186E-04 -.312E-04
   0.538E+02 -.618E+01 0.291E+01   -.608E+02 0.698E+01 -.328E+01   0.595E+01 -.684E+00 0.322E+00   -.351E-04 0.234E-04 -.224E-04
   -.236E+02 -.471E+02 0.151E+01   0.260E+02 0.519E+02 -.167E+01   -.245E+01 -.488E+01 0.151E+00   -.126E-04 0.128E-04 -.236E-04
   -.125E+02 0.236E+02 -.440E+02   0.135E+02 -.256E+02 0.476E+02   -.124E+01 0.233E+01 -.434E+01   -.100E-04 0.959E-05 0.663E-05
   -.213E+01 0.105E+01 -.946E+00   0.284E+01 -.135E+01 0.119E+01   0.735E+00 -.329E+00 0.281E+00   -.131E-04 0.122E-03 -.117E-03
 -----------------------------------------------------------------------------------------------
   -.126E+01 0.577E+00 -.496E+00   -.178E-14 -.355E-14 0.000E+00   0.126E+01 -.577E+00 0.496E+00   -.807E-04 0.187E-03 -.188E-03
 
 
 POSITION                                       TOTAL-FORCE (eV/Angst)
 -----------------------------------------------------------------------------------
      5.47916      4.11892      3.47996        -0.108098      0.190952      0.238650
      4.06635      4.85780      4.27049        -1.080295      0.111371     -0.047898
      5.61603      5.71859      4.29646        -0.028556     -0.068948     -0.004144
      5.39691      4.22015      5.29013        -0.224170      0.392488     -0.714919
      5.12319      4.73649      4.32758         1.441027     -0.626119      0.528239
 -----------------------------------------------------------------------------------
    total drift:                               -0.000093     -0.000256     -0.000072


--------------------------------------------------------------------------------------------------------



  FREE ENERGIE OF THE ION-ELECTRON SYSTEM (eV)
  ---------------------------------------------------
  free  energy   TOTEN  =       -23.99809329 eV

  energy  without entropy=      -23.99809329  energy(sigma->0) =      -23.99809329
 
 d Force =-0.8588735E-02[-0.940E-02,-0.778E-02]  d Energy =-0.8586124E-02-0.261E-05
 d Force = 0.3057709E-01[ 0.287E-01, 0.325E-01]  d Ewald  = 0.3057894E-01-0.185E-05


--------------------------------------------------------------------------------------------------------


    POTLOK:  cpu time    0.1454: real time    0.1478


--------------------------------------------------------------------------------------------------------


 stress matrix after NEB project (eV)
      0.63249      0.02316     -0.06055
      0.02316     -0.75344      0.20938
     -0.06055      0.20938     -1.26020
  FORCES: max atom, RMS     1.657595    0.975239
  FORCE total and by dimension    2.180700    1.441027
  Stress total and by dimension    1.628467    1.260198
           RANDOM_SEED =         581349948               30                0
   IONSTEP:  cpu time    0.0002: real time    0.0002

  ENERGY OF THE ELECTRON-ION-THERMOSTAT SYSTEM (eV)
  ---------------------------------------------------
% ion-electron   TOTEN  =       -23.998093  see above
  kinetic energy EKIN   =         0.007256
  kin. lattice  EKIN_LAT=         0.000000  (temperature   14.03 K)
  nose potential ES     =         0.000000
  nose kinetic   EPS    =         0.000000
  ---------------------------------------------------
  total energy   ETOTAL =       -23.990837 eV

  maximum distance moved by ions :      0.31E-03


 mean value of Nose-termostat <S>:     1.000 mean value of <T> :    38.418
 mean temperature <T/S>/<1/S>  :    38.418

    WAVPRE:  cpu time    0.0517: real time    0.0529
    FEWALD:  cpu time    0.0005: real time    0.0005
    ORTHCH:  cpu time    0.0087: real time    0.0089
 Prediction of Wavefunctions ALPHA= 2.109 BETA=-1.134
    POTLOK:  cpu time    0.1386: real time    0.1413
    EDDIAG:  cpu time    0.0410: real time    0.0417
     LOOP+:  cpu time    2.2079: real time    2.2519
    4ORBIT:  cpu time    0.0000: real time    0.0009

 total amount of memory used by VASP MPI-rank0    54658. kBytes
=======================================================================

   base      :      30000. kBytes
   nonl-proj :       2680. kBytes
   fftplans  :       7851. kBytes
   grid      :      12378. kBytes
   one-center:          6. kBytes
   wavefun   :       1743. kBytes
 
  
  
 General timing and accounting informations for this job:
 ========================================================
  
                  Total CPU time used (sec):       32.352
                            User time (sec):       29.687
                          System time (sec):        2.665
                         Elapsed time (sec):       33.859
  
                   Maximum memory used (kb):      181124.
                   Average memory used (kb):           0.
  
                          Minor page faults:       248851
                          Major page faults:          126
                 Voluntary context switches:          541
