   5   5   0   0
  0.2041675E+03  0.1015450E-08  0.1009290E-08  0.9966528E-09  0.5000000E-15
  1.000000000000000E-004
  CAR 
 unknown system                          
      2.70768056    -18.94326370  301     -8.26206072      1.00000000
    -18.943  0.0000E+00  0.0000E+00
    -18.871  0.0000E+00  0.0000E+00
    -18.799  0.0000E+00  0.0000E+00
    -18.727  0.0000E+00  0.0000E+00
    -18.655  0.0000E+00  0.0000E+00
    -18.582  0.0000E+00  0.0000E+00
    -18.510  0.0000E+00  0.0000E+00
    -18.438  0.0000E+00  0.0000E+00
    -18.366  0.0000E+00  0.0000E+00
    -18.294  0.0000E+00  0.0000E+00
    -18.222  0.0000E+00  0.0000E+00
    -18.149  0.0000E+00  0.0000E+00
    -18.077  0.1266E-13  0.9104E-15
    -18.005  0.6886E-12  0.5044E-13
    -17.933  0.2966E-10  0.2184E-11
    -17.861  0.9895E-09  0.7336E-10
    -17.789  0.2557E-07  0.1913E-08
    -17.716  0.5119E-06  0.3874E-07
    -17.644  0.7944E-05  0.6101E-06
    -17.572  0.9555E-04  0.7483E-05
    -17.500  0.8911E-03  0.7158E-04
    -17.428  0.6445E-02  0.5352E-03
    -17.356  0.3616E-01  0.3136E-02
    -17.283  0.1574E+00  0.1446E-01
    -17.211  0.5319E+00  0.5272E-01
    -17.139  0.1395E+01  0.1530E+00
    -17.067  0.2840E+01  0.3573E+00
    -16.995  0.4489E+01  0.6802E+00
    -16.923  0.5511E+01  0.1076E+01
    -16.850  0.5254E+01  0.1454E+01
    -16.778  0.3890E+01  0.1734E+01
    -16.706  0.2237E+01  0.1895E+01
    -16.634  0.9989E+00  0.1967E+01
    -16.562  0.3464E+00  0.1992E+01
    -16.489  0.9330E-01  0.1998E+01
    -16.417  0.1951E-01  0.2000E+01
    -16.345  0.3168E-02  0.2000E+01
    -16.273  0.3992E-03  0.2000E+01
    -16.201  0.3905E-04  0.2000E+01
    -16.129  0.2964E-05  0.2000E+01
    -16.056  0.1746E-06  0.2000E+01
    -15.984  0.7980E-08  0.2000E+01
    -15.912  0.2829E-09  0.2000E+01
    -15.840  0.7779E-11  0.2000E+01
    -15.768  0.1666E-12  0.2000E+01
    -15.696  0.2784E-14  0.2000E+01
    -15.623  0.0000E+00  0.2000E+01
    -15.551  0.0000E+00  0.2000E+01
    -15.479  0.0000E+00  0.2000E+01
    -15.407  0.0000E+00  0.2000E+01
    -15.335  0.0000E+00  0.2000E+01
    -15.263  0.0000E+00  0.2000E+01
    -15.190  0.0000E+00  0.2000E+01
    -15.118  0.0000E+00  0.2000E+01
    -15.046  0.0000E+00  0.2000E+01
    -14.974  0.0000E+00  0.2000E+01
    -14.902  0.0000E+00  0.2000E+01
    -14.830  0.0000E+00  0.2000E+01
    -14.757  0.0000E+00  0.2000E+01
    -14.685  0.0000E+00  0.2000E+01
    -14.613  0.0000E+00  0.2000E+01
    -14.541  0.0000E+00  0.2000E+01
    -14.469  0.0000E+00  0.2000E+01
    -14.397  0.0000E+00  0.2000E+01
    -14.324  0.0000E+00  0.2000E+01
    -14.252  0.0000E+00  0.2000E+01
    -14.180  0.0000E+00  0.2000E+01
    -14.108  0.0000E+00  0.2000E+01
    -14.036  0.0000E+00  0.2000E+01
    -13.964  0.0000E+00  0.2000E+01
    -13.891  0.0000E+00  0.2000E+01
    -13.819  0.0000E+00  0.2000E+01
    -13.747  0.0000E+00  0.2000E+01
    -13.675  0.0000E+00  0.2000E+01
    -13.603  0.0000E+00  0.2000E+01
    -13.531  0.0000E+00  0.2000E+01
    -13.458  0.0000E+00  0.2000E+01
    -13.386  0.0000E+00  0.2000E+01
    -13.314  0.0000E+00  0.2000E+01
    -13.242  0.0000E+00  0.2000E+01
    -13.170  0.0000E+00  0.2000E+01
    -13.098  0.0000E+00  0.2000E+01
    -13.025  0.0000E+00  0.2000E+01
    -12.953  0.0000E+00  0.2000E+01
    -12.881  0.0000E+00  0.2000E+01
    -12.809  0.0000E+00  0.2000E+01
    -12.737  0.0000E+00  0.2000E+01
    -12.664  0.0000E+00  0.2000E+01
    -12.592  0.0000E+00  0.2000E+01
    -12.520  0.0000E+00  0.2000E+01
    -12.448  0.0000E+00  0.2000E+01
    -12.376  0.0000E+00  0.2000E+01
    -12.304  0.0000E+00  0.2000E+01
    -12.231  0.0000E+00  0.2000E+01
    -12.159  0.0000E+00  0.2000E+01
    -12.087  0.0000E+00  0.2000E+01
    -12.015  0.0000E+00  0.2000E+01
    -11.943  0.0000E+00  0.2000E+01
    -11.871  0.0000E+00  0.2000E+01
    -11.798  0.0000E+00  0.2000E+01
    -11.726  0.0000E+00  0.2000E+01
    -11.654  0.0000E+00  0.2000E+01
    -11.582  0.0000E+00  0.2000E+01
    -11.510  0.0000E+00  0.2000E+01
    -11.438  0.0000E+00  0.2000E+01
    -11.365  0.0000E+00  0.2000E+01
    -11.293  0.0000E+00  0.2000E+01
    -11.221  0.0000E+00  0.2000E+01
    -11.149  0.0000E+00  0.2000E+01
    -11.077  0.0000E+00  0.2000E+01
    -11.005  0.0000E+00  0.2000E+01
    -10.932  0.0000E+00  0.2000E+01
    -10.860  0.0000E+00  0.2000E+01
    -10.788  0.0000E+00  0.2000E+01
    -10.716  0.0000E+00  0.2000E+01
    -10.644  0.0000E+00  0.2000E+01
    -10.572  0.3244E-14  0.2000E+01
    -10.499  0.1968E-12  0.2000E+01
    -10.427  0.9145E-11  0.2000E+01
    -10.355  0.3296E-09  0.2000E+01
    -10.283  0.9220E-08  0.2000E+01
    -10.211  0.2004E-06  0.2000E+01
    -10.139  0.3384E-05  0.2000E+01
    -10.066  0.4446E-04  0.2000E+01
     -9.994  0.4550E-03  0.2000E+01
     -9.922  0.3633E-02  0.2000E+01
     -9.850  0.2269E-01  0.2002E+01
     -9.778  0.1112E+00  0.2010E+01
     -9.706  0.4302E+00  0.2041E+01
     -9.633  0.1321E+01  0.2136E+01
     -9.561  0.3246E+01  0.2369E+01
     -9.489  0.6440E+01  0.2832E+01
     -9.417  0.1041E+02  0.3581E+01
     -9.345  0.1378E+02  0.4572E+01
     -9.273  0.1499E+02  0.5650E+01
     -9.200  0.1335E+02  0.6610E+01
     -9.128  0.9673E+01  0.7306E+01
     -9.056  0.5655E+01  0.7712E+01
     -8.984  0.2646E+01  0.7903E+01
     -8.912  0.9838E+00  0.7973E+01
     -8.839  0.2891E+00  0.7994E+01
     -8.767  0.6684E-01  0.7999E+01
     -8.695  0.1212E-01  0.8000E+01
     -8.623  0.1720E-02  0.8000E+01
     -8.551  0.1905E-03  0.8000E+01
     -8.479  0.1646E-04  0.8000E+01
     -8.406  0.1108E-05  0.8000E+01
     -8.334  0.5799E-07  0.8000E+01
     -8.262  0.2360E-08  0.8000E+01
     -8.190  0.7459E-10  0.8000E+01
     -8.118  0.1830E-11  0.8000E+01
     -8.046  0.3486E-13  0.8000E+01
     -7.973  0.0000E+00  0.8000E+01
     -7.901  0.0000E+00  0.8000E+01
     -7.829  0.0000E+00  0.8000E+01
     -7.757  0.0000E+00  0.8000E+01
     -7.685  0.0000E+00  0.8000E+01
     -7.613  0.0000E+00  0.8000E+01
     -7.540  0.0000E+00  0.8000E+01
     -7.468  0.0000E+00  0.8000E+01
     -7.396  0.0000E+00  0.8000E+01
     -7.324  0.0000E+00  0.8000E+01
     -7.252  0.0000E+00  0.8000E+01
     -7.180  0.0000E+00  0.8000E+01
     -7.107  0.0000E+00  0.8000E+01
     -7.035  0.0000E+00  0.8000E+01
     -6.963  0.0000E+00  0.8000E+01
     -6.891  0.0000E+00  0.8000E+01
     -6.819  0.0000E+00  0.8000E+01
     -6.747  0.0000E+00  0.8000E+01
     -6.674  0.0000E+00  0.8000E+01
     -6.602  0.0000E+00  0.8000E+01
     -6.530  0.0000E+00  0.8000E+01
     -6.458  0.0000E+00  0.8000E+01
     -6.386  0.0000E+00  0.8000E+01
     -6.314  0.0000E+00  0.8000E+01
     -6.241  0.0000E+00  0.8000E+01
     -6.169  0.0000E+00  0.8000E+01
     -6.097  0.0000E+00  0.8000E+01
     -6.025  0.0000E+00  0.8000E+01
     -5.953  0.0000E+00  0.8000E+01
     -5.881  0.0000E+00  0.8000E+01
     -5.808  0.0000E+00  0.8000E+01
     -5.736  0.0000E+00  0.8000E+01
     -5.664  0.0000E+00  0.8000E+01
     -5.592  0.0000E+00  0.8000E+01
     -5.520  0.0000E+00  0.8000E+01
     -5.448  0.0000E+00  0.8000E+01
     -5.375  0.0000E+00  0.8000E+01
     -5.303  0.0000E+00  0.8000E+01
     -5.231  0.0000E+00  0.8000E+01
     -5.159  0.0000E+00  0.8000E+01
     -5.087  0.0000E+00  0.8000E+01
     -5.014  0.0000E+00  0.8000E+01
     -4.942  0.0000E+00  0.8000E+01
     -4.870  0.0000E+00  0.8000E+01
     -4.798  0.0000E+00  0.8000E+01
     -4.726  0.0000E+00  0.8000E+01
     -4.654  0.0000E+00  0.8000E+01
     -4.581  0.0000E+00  0.8000E+01
     -4.509  0.0000E+00  0.8000E+01
     -4.437  0.0000E+00  0.8000E+01
     -4.365  0.0000E+00  0.8000E+01
     -4.293  0.0000E+00  0.8000E+01
     -4.221  0.0000E+00  0.8000E+01
     -4.148  0.0000E+00  0.8000E+01
     -4.076  0.0000E+00  0.8000E+01
     -4.004  0.0000E+00  0.8000E+01
     -3.932  0.0000E+00  0.8000E+01
     -3.860  0.0000E+00  0.8000E+01
     -3.788  0.0000E+00  0.8000E+01
     -3.715  0.0000E+00  0.8000E+01
     -3.643  0.0000E+00  0.8000E+01
     -3.571  0.0000E+00  0.8000E+01
     -3.499  0.0000E+00  0.8000E+01
     -3.427  0.0000E+00  0.8000E+01
     -3.355  0.0000E+00  0.8000E+01
     -3.282  0.0000E+00  0.8000E+01
     -3.210  0.0000E+00  0.8000E+01
     -3.138  0.0000E+00  0.8000E+01
     -3.066  0.0000E+00  0.8000E+01
     -2.994  0.0000E+00  0.8000E+01
     -2.922  0.0000E+00  0.8000E+01
     -2.849  0.0000E+00  0.8000E+01
     -2.777  0.0000E+00  0.8000E+01
     -2.705  0.0000E+00  0.8000E+01
     -2.633  0.0000E+00  0.8000E+01
     -2.561  0.0000E+00  0.8000E+01
     -2.489  0.0000E+00  0.8000E+01
     -2.416  0.0000E+00  0.8000E+01
     -2.344  0.0000E+00  0.8000E+01
     -2.272  0.0000E+00  0.8000E+01
     -2.200  0.0000E+00  0.8000E+01
     -2.128  0.0000E+00  0.8000E+01
     -2.056  0.0000E+00  0.8000E+01
     -1.983  0.0000E+00  0.8000E+01
     -1.911  0.0000E+00  0.8000E+01
     -1.839  0.0000E+00  0.8000E+01
     -1.767  0.0000E+00  0.8000E+01
     -1.695  0.0000E+00  0.8000E+01
     -1.623  0.0000E+00  0.8000E+01
     -1.550  0.0000E+00  0.8000E+01
     -1.478  0.6648E-14  0.8000E+01
     -1.406  0.3721E-12  0.8000E+01
     -1.334  0.1636E-10  0.8000E+01
     -1.262  0.5587E-09  0.8000E+01
     -1.189  0.1483E-07  0.8000E+01
     -1.117  0.3057E-06  0.8000E+01
     -1.045  0.4898E-05  0.8000E+01
     -0.973  0.6102E-04  0.8000E+01
     -0.901  0.5909E-03  0.8000E+01
     -0.829  0.4450E-02  0.8000E+01
     -0.756  0.2606E-01  0.8002E+01
     -0.684  0.1187E+00  0.8011E+01
     -0.612  0.4203E+00  0.8041E+01
     -0.540  0.1158E+01  0.8124E+01
     -0.468  0.2482E+01  0.8303E+01
     -0.396  0.4139E+01  0.8600E+01
     -0.323  0.5367E+01  0.8986E+01
     -0.251  0.5414E+01  0.9376E+01
     -0.179  0.4246E+01  0.9681E+01
     -0.107  0.2590E+01  0.9867E+01
     -0.035  0.1228E+01  0.9956E+01
      0.037  0.4564E+00  0.9989E+01
      0.110  0.1538E+00  0.1000E+02
      0.182  0.1462E+00  0.1001E+02
      0.254  0.4543E+00  0.1004E+02
      0.326  0.1372E+01  0.1014E+02
      0.398  0.3361E+01  0.1038E+02
      0.470  0.6669E+01  0.1086E+02
      0.543  0.1077E+02  0.1164E+02
      0.615  0.1421E+02  0.1266E+02
      0.687  0.1527E+02  0.1376E+02
      0.759  0.1329E+02  0.1471E+02
      0.831  0.9307E+01  0.1538E+02
      0.903  0.5202E+01  0.1576E+02
      0.976  0.2304E+01  0.1592E+02
      1.048  0.8049E+00  0.1598E+02
      1.120  0.2207E+00  0.1600E+02
      1.192  0.4737E-01  0.1600E+02
      1.264  0.7941E-02  0.1600E+02
      1.336  0.1038E-02  0.1600E+02
      1.409  0.1057E-03  0.1600E+02
      1.481  0.8372E-05  0.1600E+02
      1.553  0.5158E-06  0.1600E+02
      1.625  0.2469E-07  0.1600E+02
      1.697  0.9182E-09  0.1600E+02
      1.769  0.2651E-10  0.1600E+02
      1.842  0.5943E-12  0.1600E+02
      1.914  0.9801E-14  0.1600E+02
      1.986  0.0000E+00  0.1600E+02
      2.058  0.0000E+00  0.1600E+02
      2.130  0.0000E+00  0.1600E+02
      2.202  0.0000E+00  0.1600E+02
      2.275  0.0000E+00  0.1600E+02
      2.347  0.0000E+00  0.1600E+02
      2.419  0.0000E+00  0.1600E+02
      2.491  0.0000E+00  0.1600E+02
      2.563  0.0000E+00  0.1600E+02
      2.636  0.0000E+00  0.1600E+02
      2.708  0.0000E+00  0.1600E+02
      2.70731480    -18.94944980  301     -8.26537543      1.00000000
    -18.949  0.0000E+00  0.0000E+00
    -18.877  0.0000E+00  0.0000E+00
    -18.805  0.0000E+00  0.0000E+00
    -18.733  0.0000E+00  0.0000E+00
    -18.661  0.0000E+00  0.0000E+00
    -18.589  0.0000E+00  0.0000E+00
    -18.516  0.0000E+00  0.0000E+00
    -18.444  0.0000E+00  0.0000E+00
    -18.372  0.0000E+00  0.0000E+00
    -18.300  0.0000E+00  0.0000E+00
    -18.228  0.0000E+00  0.0000E+00
    -18.155  0.0000E+00  0.0000E+00
    -18.083  0.1538E-14  0.1110E-15
    -18.011  0.8266E-13  0.6078E-14
    -17.939  0.3566E-11  0.2635E-12
    -17.867  0.1189E-09  0.8846E-11
    -17.794  0.3065E-08  0.2301E-09
    -17.722  0.6110E-07  0.4641E-08
    -17.650  0.9423E-06  0.7266E-07
    -17.578  0.1125E-04  0.8845E-06
    -17.506  0.1039E-03  0.8382E-05
    -17.433  0.7426E-03  0.6199E-04
    -17.361  0.4111E-02  0.3588E-03
    -17.289  0.1763E-01  0.1631E-02
    -17.217  0.5854E-01  0.5857E-02
    -17.145  0.1506E+00  0.1673E-01
    -17.073  0.3002E+00  0.3840E-01
    -17.000  0.4638E+00  0.7188E-01
    -16.928  0.5551E+00  0.1120E+00
    -16.856  0.5149E+00  0.1491E+00
    -16.784  0.3702E+00  0.1759E+00
    -16.712  0.2062E+00  0.1907E+00
    -16.639  0.8900E-01  0.1972E+00
    -16.567  0.2976E-01  0.1993E+00
    -16.495  0.7709E-02  0.1999E+00
    -16.423  0.1546E-02  0.2000E+00
    -16.351  0.2402E-03  0.2000E+00
    -16.278  0.2889E-04  0.2000E+00
    -16.206  0.2690E-05  0.2000E+00
    -16.134  0.1938E-06  0.2000E+00
    -16.062  0.1080E-07  0.2000E+00
    -15.990  0.4656E-09  0.2000E+00
    -15.918  0.1552E-10  0.2000E+00
    -15.845  0.4002E-12  0.2000E+00
    -15.773  0.7997E-14  0.2000E+00
    -15.701  0.0000E+00  0.2000E+00
    -15.629  0.0000E+00  0.2000E+00
    -15.557  0.0000E+00  0.2000E+00
    -15.484  0.0000E+00  0.2000E+00
    -15.412  0.0000E+00  0.2000E+00
    -15.340  0.0000E+00  0.2000E+00
    -15.268  0.0000E+00  0.2000E+00
    -15.196  0.0000E+00  0.2000E+00
    -15.123  0.0000E+00  0.2000E+00
    -15.051  0.0000E+00  0.2000E+00
    -14.979  0.0000E+00  0.2000E+00
    -14.907  0.0000E+00  0.2000E+00
    -14.835  0.0000E+00  0.2000E+00
    -14.762  0.0000E+00  0.2000E+00
    -14.690  0.0000E+00  0.2000E+00
    -14.618  0.0000E+00  0.2000E+00
    -14.546  0.0000E+00  0.2000E+00
    -14.474  0.0000E+00  0.2000E+00
    -14.402  0.0000E+00  0.2000E+00
    -14.329  0.0000E+00  0.2000E+00
    -14.257  0.0000E+00  0.2000E+00
    -14.185  0.0000E+00  0.2000E+00
    -14.113  0.0000E+00  0.2000E+00
    -14.041  0.0000E+00  0.2000E+00
    -13.968  0.0000E+00  0.2000E+00
    -13.896  0.0000E+00  0.2000E+00
    -13.824  0.0000E+00  0.2000E+00
    -13.752  0.0000E+00  0.2000E+00
    -13.680  0.0000E+00  0.2000E+00
    -13.607  0.0000E+00  0.2000E+00
    -13.535  0.0000E+00  0.2000E+00
    -13.463  0.0000E+00  0.2000E+00
    -13.391  0.0000E+00  0.2000E+00
    -13.319  0.0000E+00  0.2000E+00
    -13.247  0.0000E+00  0.2000E+00
    -13.174  0.0000E+00  0.2000E+00
    -13.102  0.0000E+00  0.2000E+00
    -13.030  0.0000E+00  0.2000E+00
    -12.958  0.0000E+00  0.2000E+00
    -12.886  0.0000E+00  0.2000E+00
    -12.813  0.0000E+00  0.2000E+00
    -12.741  0.0000E+00  0.2000E+00
    -12.669  0.0000E+00  0.2000E+00
    -12.597  0.0000E+00  0.2000E+00
    -12.525  0.0000E+00  0.2000E+00
    -12.452  0.0000E+00  0.2000E+00
    -12.380  0.0000E+00  0.2000E+00
    -12.308  0.0000E+00  0.2000E+00
    -12.236  0.0000E+00  0.2000E+00
    -12.164  0.0000E+00  0.2000E+00
    -12.091  0.0000E+00  0.2000E+00
    -12.019  0.0000E+00  0.2000E+00
    -11.947  0.0000E+00  0.2000E+00
    -11.875  0.0000E+00  0.2000E+00
    -11.803  0.0000E+00  0.2000E+00
    -11.731  0.0000E+00  0.2000E+00
    -11.658  0.0000E+00  0.2000E+00
    -11.586  0.0000E+00  0.2000E+00
    -11.514  0.0000E+00  0.2000E+00
    -11.442  0.0000E+00  0.2000E+00
    -11.370  0.0000E+00  0.2000E+00
    -11.297  0.0000E+00  0.2000E+00
    -11.225  0.0000E+00  0.2000E+00
    -11.153  0.0000E+00  0.2000E+00
    -11.081  0.0000E+00  0.2000E+00
    -11.009  0.0000E+00  0.2000E+00
    -10.936  0.0000E+00  0.2000E+00
    -10.864  0.0000E+00  0.2000E+00
    -10.792  0.0000E+00  0.2000E+00
    -10.720  0.0000E+00  0.2000E+00
    -10.648  0.0000E+00  0.2000E+00
    -10.576  0.1538E-15  0.2000E+00
    -10.503  0.7690E-14  0.2000E+00
    -10.431  0.3947E-12  0.2000E+00
    -10.359  0.1549E-10  0.2000E+00
    -10.287  0.4706E-09  0.2000E+00
    -10.215  0.1109E-07  0.2000E+00
    -10.142  0.2027E-06  0.2000E+00
    -10.070  0.2876E-05  0.2000E+00
     -9.998  0.3174E-04  0.2000E+00
     -9.926  0.2727E-03  0.2000E+00
     -9.854  0.1826E-02  0.2002E+00
     -9.781  0.9560E-02  0.2008E+00
     -9.709  0.3921E-01  0.2037E+00
     -9.637  0.1265E+00  0.2128E+00
     -9.565  0.3222E+00  0.2361E+00
     -9.493  0.6527E+00  0.2832E+00
     -9.420  0.1059E+01  0.3596E+00
     -9.348  0.1390E+01  0.4600E+00
     -9.276  0.1487E+01  0.5673E+00
     -9.204  0.1306E+01  0.6616E+00
     -9.132  0.9434E+00  0.7297E+00
     -9.060  0.5585E+00  0.7700E+00
     -8.987  0.2689E+00  0.7894E+00
     -8.915  0.1043E+00  0.7970E+00
     -8.843  0.3224E-01  0.7993E+00
     -8.771  0.7884E-02  0.7999E+00
     -8.699  0.1515E-02  0.8000E+00
     -8.626  0.2277E-03  0.8000E+00
     -8.554  0.2667E-04  0.8000E+00
     -8.482  0.2429E-05  0.8000E+00
     -8.410  0.1718E-06  0.8000E+00
     -8.338  0.9414E-08  0.8000E+00
     -8.265  0.3996E-09  0.8000E+00
     -8.193  0.1313E-10  0.8000E+00
     -8.121  0.3337E-12  0.8000E+00
     -8.049  0.6767E-14  0.8000E+00
     -7.977  0.0000E+00  0.8000E+00
     -7.904  0.0000E+00  0.8000E+00
     -7.832  0.0000E+00  0.8000E+00
     -7.760  0.0000E+00  0.8000E+00
     -7.688  0.0000E+00  0.8000E+00
     -7.616  0.0000E+00  0.8000E+00
     -7.544  0.0000E+00  0.8000E+00
     -7.471  0.0000E+00  0.8000E+00
     -7.399  0.0000E+00  0.8000E+00
     -7.327  0.0000E+00  0.8000E+00
     -7.255  0.0000E+00  0.8000E+00
     -7.183  0.0000E+00  0.8000E+00
     -7.110  0.0000E+00  0.8000E+00
     -7.038  0.0000E+00  0.8000E+00
     -6.966  0.0000E+00  0.8000E+00
     -6.894  0.0000E+00  0.8000E+00
     -6.822  0.0000E+00  0.8000E+00
     -6.749  0.0000E+00  0.8000E+00
     -6.677  0.0000E+00  0.8000E+00
     -6.605  0.0000E+00  0.8000E+00
     -6.533  0.0000E+00  0.8000E+00
     -6.461  0.0000E+00  0.8000E+00
     -6.389  0.0000E+00  0.8000E+00
     -6.316  0.0000E+00  0.8000E+00
     -6.244  0.0000E+00  0.8000E+00
     -6.172  0.0000E+00  0.8000E+00
     -6.100  0.0000E+00  0.8000E+00
     -6.028  0.0000E+00  0.8000E+00
     -5.955  0.0000E+00  0.8000E+00
     -5.883  0.0000E+00  0.8000E+00
     -5.811  0.0000E+00  0.8000E+00
     -5.739  0.0000E+00  0.8000E+00
     -5.667  0.0000E+00  0.8000E+00
     -5.594  0.0000E+00  0.8000E+00
     -5.522  0.0000E+00  0.8000E+00
     -5.450  0.0000E+00  0.8000E+00
     -5.378  0.0000E+00  0.8000E+00
     -5.306  0.0000E+00  0.8000E+00
     -5.233  0.0000E+00  0.8000E+00
     -5.161  0.0000E+00  0.8000E+00
     -5.089  0.0000E+00  0.8000E+00
     -5.017  0.0000E+00  0.8000E+00
     -4.945  0.0000E+00  0.8000E+00
     -4.873  0.0000E+00  0.8000E+00
     -4.800  0.0000E+00  0.8000E+00
     -4.728  0.0000E+00  0.8000E+00
     -4.656  0.0000E+00  0.8000E+00
     -4.584  0.0000E+00  0.8000E+00
     -4.512  0.0000E+00  0.8000E+00
     -4.439  0.0000E+00  0.8000E+00
     -4.367  0.0000E+00  0.8000E+00
     -4.295  0.0000E+00  0.8000E+00
     -4.223  0.0000E+00  0.8000E+00
     -4.151  0.0000E+00  0.8000E+00
     -4.078  0.0000E+00  0.8000E+00
     -4.006  0.0000E+00  0.8000E+00
     -3.934  0.0000E+00  0.8000E+00
     -3.862  0.0000E+00  0.8000E+00
     -3.790  0.0000E+00  0.8000E+00
     -3.718  0.0000E+00  0.8000E+00
     -3.645  0.0000E+00  0.8000E+00
     -3.573  0.0000E+00  0.8000E+00
     -3.501  0.0000E+00  0.8000E+00
     -3.429  0.0000E+00  0.8000E+00
     -3.357  0.0000E+00  0.8000E+00
     -3.284  0.0000E+00  0.8000E+00
     -3.212  0.0000E+00  0.8000E+00
     -3.140  0.0000E+00  0.8000E+00
     -3.068  0.0000E+00  0.8000E+00
     -2.996  0.0000E+00  0.8000E+00
     -2.923  0.0000E+00  0.8000E+00
     -2.851  0.0000E+00  0.8000E+00
     -2.779  0.0000E+00  0.8000E+00
     -2.707  0.0000E+00  0.8000E+00
     -2.635  0.0000E+00  0.8000E+00
     -2.562  0.0000E+00  0.8000E+00
     -2.490  0.0000E+00  0.8000E+00
     -2.418  0.0000E+00  0.8000E+00
     -2.346  0.0000E+00  0.8000E+00
     -2.274  0.0000E+00  0.8000E+00
     -2.202  0.0000E+00  0.8000E+00
     -2.129  0.0000E+00  0.8000E+00
     -2.057  0.0000E+00  0.8000E+00
     -1.985  0.0000E+00  0.8000E+00
     -1.913  0.0000E+00  0.8000E+00
     -1.841  0.0000E+00  0.8000E+00
     -1.768  0.0000E+00  0.8000E+00
     -1.696  0.0000E+00  0.8000E+00
     -1.624  0.0000E+00  0.8000E+00
     -1.552  0.0000E+00  0.8000E+00
     -1.480  0.1538E-15  0.8000E+00
     -1.407  0.7882E-14  0.8000E+00
     -1.335  0.3978E-12  0.8000E+00
     -1.263  0.1542E-10  0.8000E+00
     -1.191  0.4624E-09  0.8000E+00
     -1.119  0.1072E-07  0.8000E+00
     -1.047  0.1923E-06  0.8000E+00
     -0.974  0.2670E-05  0.8000E+00
     -0.902  0.2868E-04  0.8000E+00
     -0.830  0.2385E-03  0.8000E+00
     -0.758  0.1536E-02  0.8001E+00
     -0.686  0.7661E-02  0.8007E+00
     -0.613  0.2959E-01  0.8028E+00
     -0.541  0.8857E-01  0.8092E+00
     -0.469  0.2054E+00  0.8240E+00
     -0.397  0.3692E+00  0.8507E+00
     -0.325  0.5142E+00  0.8878E+00
     -0.252  0.5551E+00  0.9279E+00
     -0.180  0.4645E+00  0.9614E+00
     -0.108  0.3012E+00  0.9832E+00
     -0.036  0.1514E+00  0.9941E+00
      0.036  0.5923E-01  0.9984E+00
      0.109  0.1953E-01  0.9998E+00
      0.181  0.1305E-01  0.1001E+01
      0.253  0.3660E-01  0.1003E+01
      0.325  0.1149E+00  0.1012E+01
      0.397  0.2941E+00  0.1033E+01
      0.469  0.6077E+00  0.1077E+01
      0.542  0.1018E+01  0.1150E+01
      0.614  0.1388E+01  0.1250E+01
      0.686  0.1536E+01  0.1361E+01
      0.758  0.1375E+01  0.1461E+01
      0.830  0.9873E+00  0.1532E+01
      0.903  0.5649E+00  0.1573E+01
      0.975  0.2558E+00  0.1591E+01
      1.047  0.9113E-01  0.1598E+01
      1.119  0.2545E-01  0.1600E+01
      1.191  0.5551E-02  0.1600E+01
      1.264  0.9440E-03  0.1600E+01
      1.336  0.1250E-03  0.1600E+01
      1.408  0.1286E-04  0.1600E+01
      1.480  0.1027E-05  0.1600E+01
      1.552  0.6373E-07  0.1600E+01
      1.624  0.3067E-08  0.1600E+01
      1.697  0.1144E-09  0.1600E+01
      1.769  0.3307E-11  0.1600E+01
      1.841  0.7413E-13  0.1600E+01
      1.913  0.1230E-14  0.1600E+01
      1.985  0.0000E+00  0.1600E+01
      2.058  0.0000E+00  0.1600E+01
      2.130  0.0000E+00  0.1600E+01
      2.202  0.0000E+00  0.1600E+01
      2.274  0.0000E+00  0.1600E+01
      2.346  0.0000E+00  0.1600E+01
      2.419  0.0000E+00  0.1600E+01
      2.491  0.0000E+00  0.1600E+01
      2.563  0.0000E+00  0.1600E+01
      2.635  0.0000E+00  0.1600E+01
      2.707  0.0000E+00  0.1600E+01
