 vasp.5.4.4.18Apr17-6-g9f103f2a35 (build Nov 25 2021 15:25:00) complex          
  
 executed on             LinuxIFC date 2022.02.21  10:17:16
 running on   16 total cores
 distrk:  each k-point on   16 cores,    1 groups
 distr:  one band on NCORES_PER_BAND=   4 cores,    4 groups


--------------------------------------------------------------------------------------------------------


 INCAR:
 POTCAR:    PAW_PBE H 15Jun2001                   
 POTCAR:    PAW_PBE C 08Apr2002                   
 POTCAR:    PAW_PBE H 15Jun2001                   
   VRHFIN =H: ultrasoft test                                                    
   LEXCH  = PE                                                                  
   EATOM  =    12.4884 eV,    0.9179 Ry                                         
                                                                                
   TITEL  = PAW_PBE H 15Jun2001                                                 
   LULTRA =        F    use ultrasoft PP ?                                      
   IUNSCR =        0    unscreen: 0-lin 1-nonlin 2-no                           
   RPACOR =    0.000    partial core radius                                     
   POMASS =    1.000; ZVAL   =    1.000    mass and valenz                      
   RCORE  =    1.100    outmost cutoff radius                                   
   RWIGS  =    0.700; RWIGS  =    0.370    wigner-seitz radius (au A)           
   ENMAX  =  250.000; ENMIN  =  200.000 eV                                      
   RCLOC  =    0.701    cutoff for local pot                                    
   LCOR   =        T    correct aug charges                                     
   LPAW   =        T    paw PP                                                  
   EAUG   =  400.000                                                            
   RMAX   =    1.123    core radius for proj-oper                               
   RAUG   =    1.200    factor for augmentation sphere                          
   RDEP   =    1.112    radius for radial grids                                 
   RDEPT  =    0.926    core radius for aug-charge                              
                                                                                
   Atomic configuration                                                         
    2 entries                                                                   
     n  l   j            E        occ.                                          
     1  0  0.50        -6.4927   1.0000                                         
     2  1  0.50        -3.4015   0.0000                                         
   Description                                                                  
     l       E           TYP  RCUT    TYP  RCUT                                 
     0     -6.4927494     23  1.100                                             
     0      6.8029130     23  1.100                                             
     1     -4.0817478     23  1.100                                             
  local pseudopotential read in
  atomic valenz-charges read in
  non local Contribution for L=           0  read in
    real space projection operators read in
  non local Contribution for L=           0  read in
    real space projection operators read in
  non local Contribution for L=           1  read in
    real space projection operators read in
    PAW grid and wavefunctions read in
 
   number of l-projection  operators is LMAX  =           3
   number of lm-projection operators is LMMAX =           5
 
 POTCAR:    PAW_PBE C 08Apr2002                   
   VRHFIN =C: s2p2                                                              
   LEXCH  = PE                                                                  
   EATOM  =   147.1560 eV,   10.8157 Ry                                         
                                                                                
   TITEL  = PAW_PBE C 08Apr2002                                                 
   LULTRA =        F    use ultrasoft PP ?                                      
   IUNSCR =        1    unscreen: 0-lin 1-nonlin 2-no                           
   RPACOR =    1.200    partial core radius                                     
   POMASS =   12.011; ZVAL   =    4.000    mass and valenz                      
   RCORE  =    1.500    outmost cutoff radius                                   
   RWIGS  =    1.630; RWIGS  =    0.863    wigner-seitz radius (au A)           
   ENMAX  =  400.000; ENMIN  =  300.000 eV                                      
   ICORE  =        2    local potential                                         
   LCOR   =        T    correct aug charges                                     
   LPAW   =        T    paw PP                                                  
   EAUG   =  644.873                                                            
   DEXC   =    0.000                                                            
   RMAX   =    1.529    core radius for proj-oper                               
   RAUG   =    1.300    factor for augmentation sphere                          
   RDEP   =    1.501    radius for radial grids                                 
   RDEPT  =    1.300    core radius for aug-charge                              
                                                                                
   Atomic configuration                                                         
    4 entries                                                                   
     n  l   j            E        occ.                                          
     1  0  0.50      -273.3789   2.0000                                         
     2  0  0.50       -13.7508   2.0000                                         
     2  1  0.50        -5.2854   2.0000                                         
     3  2  1.50        -5.4423   0.0000                                         
   Description                                                                  
     l       E           TYP  RCUT    TYP  RCUT                                 
     0    -13.7508458     23  1.200                                             
     0     -8.2022199     23  1.200                                             
     1     -5.2854383     23  1.500                                             
     1     34.0145650     23  1.500                                             
     2     -5.4423304      7  1.500                                             
  local pseudopotential read in
  partial core-charges read in
  partial kinetic energy density read in
  atomic valenz-charges read in
  non local Contribution for L=           0  read in
    real space projection operators read in
  non local Contribution for L=           0  read in
    real space projection operators read in
  non local Contribution for L=           1  read in
    real space projection operators read in
  non local Contribution for L=           1  read in
    real space projection operators read in
    PAW grid and wavefunctions read in
 
   number of l-projection  operators is LMAX  =           4
   number of lm-projection operators is LMMAX =           8
 
  PAW_PBE H 15Jun2001                   :
 energy of atom  1       EATOM=  -12.4884
 kinetic energy error for atom=    0.0098 (will be added to EATOM!!)
  PAW_PBE C 08Apr2002                   :
 energy of atom  2       EATOM= -147.1560
 kinetic energy error for atom=    0.0288 (will be added to EATOM!!)
 
 
 POSCAR:  H  C                                   
  positions in cartesian coordinates
  No initial velocities read in
 exchange correlation table for  LEXCH =        8
   RHO(1)=    0.500       N(1)  =     2000
   RHO(2)=  100.500       N(2)  =     4000

 VTST: version 3.2, (02/03/18)

 CHAIN: initializing optimizer
 
 OPT: Using VASP Dynamics algorithm
 CHAIN: Read ICHAIN            0
 
 POSCAR:  H  C                                   
  positions in cartesian coordinates
  No initial velocities read in
 


--------------------------------------------------------------------------------------------------------


 ion  position               nearest neighbor table
   1  0.538  0.407  0.361-   5 1.10
   2  0.394  0.480  0.438-   5 1.12
   3  0.552  0.565  0.443-   5 1.12
   4  0.528  0.416  0.539-   5 1.09
   5  0.503  0.467  0.445-   4 1.09   1 1.10   2 1.12   3 1.12
 

IMPORTANT INFORMATION: All symmetrisations will be switched off!
NOSYMM: (Re-)initialisation of all symmetry stuff for point group C_1.

 
 

Automatic generation of k-mesh.
 generate k-points for:    2    2    2
Space group operators:
 irot       det(A)        alpha          n_x          n_y          n_z        tau_x        tau_y        tau_z
    1     1.000000     0.000000     1.000000     0.000000     0.000000     0.000000     0.000000     0.000000
 
 Subroutine IBZKPT returns following result:
 ===========================================
 
 Found      4 irreducible k-points:
 
 Following reciprocal coordinates:
            Coordinates               Weight
  0.250000  0.250000  0.250000      2.000000
 -0.250000  0.250000  0.250000      2.000000
  0.250000 -0.250000  0.250000      2.000000
 -0.250000 -0.250000  0.250000      2.000000
 
 Following cartesian coordinates:
            Coordinates               Weight
  0.024620  0.024294  0.025724      2.000000
 -0.024620  0.025255  0.024314      2.000000
  0.024620 -0.025255  0.025875      2.000000
 -0.024620 -0.024294  0.024465      2.000000
 


--------------------------------------------------------------------------------------------------------




 Dimension of arrays:
   k-points           NKPTS =      4   k-points in BZ     NKDIM =      4   number of bands    NBANDS=      8
   number of dos      NEDOS =    301   number of ions     NIONS =      5
   non local maximal  LDIM  =      4   non local SUM 2l+1 LMDIM =      8
   total plane-waves  NPLWV = 343000
   max r-space proj   IRMAX =      1   max aug-charges    IRDMAX=   4164
   dimension x,y,z NGX =    70 NGY =   70 NGZ =   70
   dimension x,y,z NGXF=   140 NGYF=  140 NGZF=  140
   support grid    NGXF=   140 NGYF=  140 NGZF=  140
   ions per type =               4   1
   NGX,Y,Z   is equivalent  to a cutoff of  11.46, 11.53, 11.68 a.u.
   NGXF,Y,Z  is equivalent  to a cutoff of  22.92, 23.06, 23.35 a.u.

 SYSTEM =  unknown system                          
 POSCAR =   H  C                                   

 Startparameter for this run:
   NWRITE =      2    write-flag & timer
   PREC   = a         normal or accurate (medium, high low for compatibility)
   ISTART =      0    job   : 0-new  1-cont  2-samecut
   ICHARG =      2    charge: 1-file 2-atom 10-const
   ISPIN  =      1    spin polarized calculation?
   LNONCOLLINEAR =      F non collinear calculations
   LSORBIT =      F    spin-orbit coupling
   INIWAV =      1    electr: 0-lowe 1-rand  2-diag
   LASPH  =      F    aspherical Exc in radial PAW
   METAGGA=      F    non-selfconsistent MetaGGA calc.

 Electronic Relaxation 1
   ENCUT  =  400.0 eV  29.40 Ry    5.42 a.u.  16.56 16.46 16.25*2*pi/ulx,y,z
   ENINI  =  400.0     initial cutoff
   ENAUG  =  644.9 eV  augmentation charge cutoff
   NELM   =    120;   NELMIN=  4; NELMDL= -5     # of ELM steps 
   EDIFF  = 0.1E-05   stopping-criterion for ELM
   LREAL  =      F    real-space projection
   NLSPLINE    = F    spline interpolate recip. space projectors
   LCOMPAT=      F    compatible to vasp.4.4
   GGA_COMPAT  = T    GGA compatible to vasp.4.4-vasp.4.6
   LMAXPAW     = -100 max onsite density
   LMAXMIX     =    2 max onsite mixed and CHGCAR
   VOSKOWN=      0    Vosko Wilk Nusair interpolation
   ROPT   =    0.00000   0.00000
 Ionic relaxation
   EDIFFG = 0.1E-04   stopping-criterion for IOM
   NSW    =     10    number of steps for IOM
   NBLOCK =      1;   KBLOCK =     10    inner block; outer block 
   IBRION =      0    ionic relax: 0-MD 1-quasi-New 2-CG
   NFREE  =      0    steps in history (QN), initial steepest desc. (CG)
   ISIF   =      2    stress and relaxation
   IWAVPR =     12    prediction:  0-non 1-charg 2-wave 3-comb
   ISYM   =      0    0-nonsym 1-usesym 2-fastsym
   LCORR  =      T    Harris-Foulkes like correction to forces

   POTIM  = 0.5000    time-step for ionic-motion
   TEIN   =    0.0    initial temperature
   TEBEG  =    0.0;   TEEND  =   0.0 temperature during run
   SMASS  =  -3.00    Nose mass-parameter (am)
   estimated Nose-frequenzy (Omega)   =  0.10E-29 period in steps =****** mass=  -0.236E-26a.u.
   SCALEE = 1.0000    scale energy and forces
   NPACO  =    256;   APACO  = 16.0  distance and # of slots for P.C.
   PSTRESS=    0.0 pullay stress

  Mass of Ions in am
   POMASS =   1.00 12.01
  Ionic Valenz
   ZVAL   =   1.00  4.00
  Atomic Wigner-Seitz radii
   RWIGS  =  -1.00 -1.00
  virtual crystal weights 
   VCA    =   1.00  1.00
   NELECT =       8.0000    total number of electrons
   NUPDOWN=      -1.0000    fix difference up-down

 DOS related values:
   EMIN   =  10.00;   EMAX   =-10.00  energy-range for DOS
   EFERMI =   0.00
   ISMEAR =     0;   SIGMA  =   0.20  broadening in eV -4-tet -1-fermi 0-gaus

 Electronic relaxation 2 (details)
   IALGO  =     68    algorithm
   LDIAG  =      T    sub-space diagonalisation (order eigenvalues)
   LSUBROT=      F    optimize rotation matrix (better conditioning)
   TURBO    =      0    0=normal 1=particle mesh
   IRESTART =      0    0=no restart 2=restart with 2 vectors
   NREBOOT  =      0    no. of reboots
   NMIN     =      0    reboot dimension
   EREF     =   0.00    reference energy to select bands
   IMIX   =      4    mixing-type and parameters
     AMIX     =   0.40;   BMIX     =  1.00
     AMIX_MAG =   1.60;   BMIX_MAG =  1.00
     AMIN     =   0.10
     WC   =   100.;   INIMIX=   1;  MIXPRE=   1;  MAXMIX= -45

 Intra band minimization:
   WEIMIN = 0.0010     energy-eigenvalue tresh-hold
   EBREAK =  0.31E-07  absolut break condition
   DEPER  =   0.30     relativ break condition  

   TIME   =   0.40     timestep for ELM

  volume/ion in A,a.u.               =     204.17      1377.79
  Fermi-wavevector in a.u.,A,eV,Ry     =   0.325177  0.614495  1.438677  0.105740
  Thomas-Fermi vector in A             =   1.215944
 
 Write flags
   LWAVE        =      F    write WAVECAR
   LDOWNSAMPLE  =      F    k-point downsampling of WAVECAR
   LCHARG       =      F    write CHGCAR
   LVTOT        =      F    write LOCPOT, total local potential
   LVHAR        =      F    write LOCPOT, Hartree potential only
   LELF         =      F    write electronic localiz. function (ELF)
   LORBIT       =      0    0 simple, 1 ext, 2 COOP (PROOUT), +10 PAW based schemes


 Dipole corrections
   LMONO  =      F    monopole corrections only (constant potential shift)
   LDIPOL =      F    correct potential (dipole corrections)
   IDIPOL =      0    1-x, 2-y, 3-z, 4-all directions 
   EPSILON=  1.0000000 bulk dielectric constant

 Exchange correlation treatment:
   GGA     =    --    GGA type
   LEXCH   =     8    internal setting for exchange type
   VOSKOWN=      0    Vosko Wilk Nusair interpolation
   LHFCALC =     F    Hartree Fock is set to
   LHFONE  =     F    Hartree Fock one center treatment
   AEXX    =    0.0000 exact exchange contribution

 Linear response parameters
   LEPSILON=     F    determine dielectric tensor
   LRPA    =     F    only Hartree local field effects (RPA)
   LNABLA  =     F    use nabla operator in PAW spheres
   LVEL    =     F    velocity operator in full k-point grid
   LINTERFAST=   F  fast interpolation
   KINTER  =     0    interpolate to denser k-point grid
   CSHIFT  =0.1000    complex shift for real part using Kramers Kronig
   OMEGAMAX=  -1.0    maximum frequency
   DEG_THRESHOLD= 0.2000000E-02 threshold for treating states as degnerate
   RTIME   =   -0.100 relaxation time in fs
  (WPLASMAI=    0.000 imaginary part of plasma frequency in eV, 0.658/RTIME)
   DFIELD  = 0.0000000 0.0000000 0.0000000 field for delta impulse in time
 
 Orbital magnetization related:
   ORBITALMAG=     F  switch on orbital magnetization
   LCHIMAG   =     F  perturbation theory with respect to B field
   DQ        =  0.001000  dq finite difference perturbation B field
   LLRAUG    =     F  two centre corrections for induced B field



--------------------------------------------------------------------------------------------------------


 molecular dynamics for ions
   using a microcanonical ensemble
 charge density and potential will be updated during run
 non-spin polarized calculation
 RMM-DIIS sequential band-by-band and
  variant of blocked Davidson during initial phase
 perform sub-space diagonalisation
    before iterative eigenvector-optimisation
 modified Broyden-mixing scheme, WC =      100.0
 initial mixing is a Kerker type mixing with AMIX =  0.4000 and BMIX =      1.0000
 Hartree-type preconditioning will be used
 using additional bands            4
 reciprocal scheme for non local part
 use partial core corrections
 calculate Harris-corrections to forces 
   (improved forces if not selfconsistent)
 use gradient corrections 
 use of overlap-Matrix (Vanderbilt PP)
 Gauss-broadening in eV      SIGMA  =   0.20


--------------------------------------------------------------------------------------------------------


  energy-cutoff  :      400.00
  volume of cell :     1020.84
      direct lattice vectors                 reciprocal lattice vectors
    10.154503059  0.000000000  0.000000000     0.098478477 -0.001920864  0.002819866
     0.196828822 10.090981156  0.000000000     0.000000000  0.099098391 -0.000301585
    -0.284675837  0.030318514  9.962415340     0.000000000  0.000000000  0.100377265

  length of vectors
    10.154503059 10.092900588  9.966527929     0.098537566  0.099098850  0.100377265


 
 k-points in units of 2pi/SCALE and weight: read from INCAR                         
   0.02461962  0.02429438  0.02572389       0.250
  -0.02461962  0.02525481  0.02431395       0.250
   0.02461962 -0.02525481  0.02587468       0.250
  -0.02461962 -0.02429438  0.02446475       0.250
 
 k-points in reciprocal lattice and weights: read from INCAR                         
   0.25000000  0.25000000  0.25000000       0.250
  -0.25000000  0.25000000  0.25000000       0.250
   0.25000000 -0.25000000  0.25000000       0.250
  -0.25000000 -0.25000000  0.25000000       0.250
 
 position of ions in fractional coordinates (direct lattice) 
   0.53760221  0.40656427  0.36062161
   0.39388126  0.47979477  0.43831266
   0.55248962  0.56547403  0.44290994
   0.52805536  0.41605133  0.53871391
   0.50336900  0.46737786  0.44520357
 
 position of ions in cartesian coordinates  (Angst):
   5.43644655  4.11356592  3.59266224
   3.96932888  4.85488896  4.36665277
   5.59547332  5.71961614  4.41245277
   5.29067186  4.21469915  5.36689169
   5.07671681  4.72979905  4.43530286
 


--------------------------------------------------------------------------------------------------------


 k-point  1 :   0.2500 0.2500 0.2500  plane waves:   18557
 k-point  2 :  -0.2500 0.2500 0.2500  plane waves:   18543
 k-point  3 :   0.2500-0.2500 0.2500  plane waves:   18547
 k-point  4 :  -0.2500-0.2500 0.2500  plane waves:   18528

 maximum and minimum number of plane-waves per node :      4684     4591

 maximum number of plane-waves:     18557
 maximum index in each direction: 
   IXMAX=   16   IYMAX=   16   IZMAX=   16
   IXMIN=  -16   IYMIN=  -16   IZMIN=  -16


 parallel 3D FFT for wavefunctions:
    minimum data exchange during FFTs selected (reduces bandwidth)
 parallel 3D FFT for charge:
    minimum data exchange during FFTs selected (reduces bandwidth)


 total amount of memory used by VASP MPI-rank0    55444. kBytes
=======================================================================

   base      :      30000. kBytes
   nonl-proj :       2742. kBytes
   fftplans  :       8575. kBytes
   grid      :      13527. kBytes
   one-center:          6. kBytes
   wavefun   :        594. kBytes
 
     INWAV:  cpu time    0.0000: real time    0.0000
 Broyden mixing: mesh for mixing (old mesh)
   NGX = 33   NGY = 33   NGZ = 33
  (NGX  =140   NGY  =140   NGZ  =140)
  gives a total of  35937 points

 initial charge density was supplied:
 charge density of overlapping atoms calculated
 number of electron       8.0000000 magnetization 
 keeping initial charge density in first step


--------------------------------------------------------------------------------------------------------


 Maximum index for augmentation-charges          170 (set IRDMAX)


--------------------------------------------------------------------------------------------------------


 First call to EWALD:  gamma=   0.176
 Maximum number of real-space cells 3x 3x 3
 Maximum number of reciprocal cells 3x 3x 3

    FEWALD:  cpu time    0.0014: real time    0.0014


--------------------------------------- Iteration      1(   1)  ---------------------------------------


    POTLOK:  cpu time    0.1366: real time    0.1455
    SETDIJ:  cpu time    0.0035: real time    0.0041
     EDDAV:  cpu time    0.1899: real time    0.2062
       DOS:  cpu time    0.0004: real time    0.0015
    --------------------------------------------
      LOOP:  cpu time    0.3304: real time    0.3573

 eigenvalue-minimisations  :    96
 total energy-change (2. order) : 0.1055791E+02  (-0.2094447E+03)
 number of electron       8.0000000 magnetization 
 augmentation part        8.0000000 magnetization 

 Free energy of the ion-electron system (eV)
  ---------------------------------------------------
  alpha Z        PSCENC =         0.23730588
  Ewald energy   TEWEN  =       127.49138017
  -Hartree energ DENC   =      -243.72668172
  -exchange      EXHF   =         0.00000000
  -V(xc)+E(xc)   XCENC  =        21.95917496
  PAW double counting   =       117.05815612     -117.66307307
  entropy T*S    EENTRO =        -0.00000000
  eigenvalues    EBANDS =       -91.84010471
  atomic energy  EATOM  =       197.04175453
  Solvation  Ediel_sol  =         0.00000000
  ---------------------------------------------------
  free energy    TOTEN  =        10.55791216 eV

  energy without entropy =       10.55791216  energy(sigma->0) =       10.55791216


--------------------------------------------------------------------------------------------------------




--------------------------------------- Iteration      1(   2)  ---------------------------------------


     EDDAV:  cpu time    0.1414: real time    0.1414
       DOS:  cpu time    0.0003: real time    0.0003
    --------------------------------------------
      LOOP:  cpu time    0.1417: real time    0.1417

 eigenvalue-minimisations  :    64
 total energy-change (2. order) :-0.3429457E+02  (-0.3429457E+02)
 number of electron       8.0000000 magnetization 
 augmentation part        8.0000000 magnetization 

 Free energy of the ion-electron system (eV)
  ---------------------------------------------------
  alpha Z        PSCENC =         0.23730588
  Ewald energy   TEWEN  =       127.49138017
  -Hartree energ DENC   =      -243.72668172
  -exchange      EXHF   =         0.00000000
  -V(xc)+E(xc)   XCENC  =        21.95917496
  PAW double counting   =       117.05815612     -117.66307307
  entropy T*S    EENTRO =        -0.00000000
  eigenvalues    EBANDS =      -126.13467233
  atomic energy  EATOM  =       197.04175453
  Solvation  Ediel_sol  =         0.00000000
  ---------------------------------------------------
  free energy    TOTEN  =       -23.73665546 eV

  energy without entropy =      -23.73665546  energy(sigma->0) =      -23.73665546


--------------------------------------------------------------------------------------------------------




--------------------------------------- Iteration      1(   3)  ---------------------------------------


     EDDAV:  cpu time    0.1553: real time    0.1553
       DOS:  cpu time    0.0003: real time    0.0003
    --------------------------------------------
      LOOP:  cpu time    0.1556: real time    0.1556

 eigenvalue-minimisations  :    64
 total energy-change (2. order) :-0.3538152E+01  (-0.3538152E+01)
 number of electron       8.0000000 magnetization 
 augmentation part        8.0000000 magnetization 

 Free energy of the ion-electron system (eV)
  ---------------------------------------------------
  alpha Z        PSCENC =         0.23730588
  Ewald energy   TEWEN  =       127.49138017
  -Hartree energ DENC   =      -243.72668172
  -exchange      EXHF   =         0.00000000
  -V(xc)+E(xc)   XCENC  =        21.95917496
  PAW double counting   =       117.05815612     -117.66307307
  entropy T*S    EENTRO =        -0.00000000
  eigenvalues    EBANDS =      -129.67282412
  atomic energy  EATOM  =       197.04175453
  Solvation  Ediel_sol  =         0.00000000
  ---------------------------------------------------
  free energy    TOTEN  =       -27.27480725 eV

  energy without entropy =      -27.27480725  energy(sigma->0) =      -27.27480725


--------------------------------------------------------------------------------------------------------




--------------------------------------- Iteration      1(   4)  ---------------------------------------


     EDDAV:  cpu time    0.2346: real time    0.2372
       DOS:  cpu time    0.0002: real time    0.0002
    --------------------------------------------
      LOOP:  cpu time    0.2348: real time    0.2374

 eigenvalue-minimisations  :   128
 total energy-change (2. order) :-0.1396716E+00  (-0.1396716E+00)
 number of electron       8.0000000 magnetization 
 augmentation part        8.0000000 magnetization 

 Free energy of the ion-electron system (eV)
  ---------------------------------------------------
  alpha Z        PSCENC =         0.23730588
  Ewald energy   TEWEN  =       127.49138017
  -Hartree energ DENC   =      -243.72668172
  -exchange      EXHF   =         0.00000000
  -V(xc)+E(xc)   XCENC  =        21.95917496
  PAW double counting   =       117.05815612     -117.66307307
  entropy T*S    EENTRO =        -0.00000000
  eigenvalues    EBANDS =      -129.81249573
  atomic energy  EATOM  =       197.04175453
  Solvation  Ediel_sol  =         0.00000000
  ---------------------------------------------------
  free energy    TOTEN  =       -27.41447886 eV

  energy without entropy =      -27.41447886  energy(sigma->0) =      -27.41447886


--------------------------------------------------------------------------------------------------------




--------------------------------------- Iteration      1(   5)  ---------------------------------------


     EDDAV:  cpu time    0.1864: real time    0.1879
       DOS:  cpu time    0.0004: real time    0.0004
    CHARGE:  cpu time    0.0193: real time    0.0193
    MIXING:  cpu time    0.0039: real time    0.0039
    --------------------------------------------
      LOOP:  cpu time    0.2100: real time    0.2115

 eigenvalue-minimisations  :    88
 total energy-change (2. order) :-0.4272707E-04  (-0.4272724E-04)
 number of electron       8.0000003 magnetization 
 augmentation part        0.2219649 magnetization 

 Broyden mixing:
  rms(total) = 0.85550E+00    rms(broyden)= 0.85530E+00
  rms(prec ) = 0.12133E+01
  weight for this iteration     100.00

 Free energy of the ion-electron system (eV)
  ---------------------------------------------------
  alpha Z        PSCENC =         0.23730588
  Ewald energy   TEWEN  =       127.49138017
  -Hartree energ DENC   =      -243.72668172
  -exchange      EXHF   =         0.00000000
  -V(xc)+E(xc)   XCENC  =        21.95917496
  PAW double counting   =       117.05815612     -117.66307307
  entropy T*S    EENTRO =        -0.00000000
  eigenvalues    EBANDS =      -129.81253846
  atomic energy  EATOM  =       197.04175453
  Solvation  Ediel_sol  =         0.00000000
  ---------------------------------------------------
  free energy    TOTEN  =       -27.41452159 eV

  energy without entropy =      -27.41452159  energy(sigma->0) =      -27.41452159


--------------------------------------------------------------------------------------------------------




--------------------------------------- Iteration      1(   6)  ---------------------------------------


    POTLOK:  cpu time    0.1322: real time    0.1322
    SETDIJ:  cpu time    0.0015: real time    0.0015
    EDDIAG:  cpu time    0.0388: real time    0.0516
  RMM-DIIS:  cpu time    0.1413: real time    0.1413
    ORTHCH:  cpu time    0.0018: real time    0.0018
       DOS:  cpu time    0.0002: real time    0.0002
    CHARGE:  cpu time    0.0183: real time    0.0183
    MIXING:  cpu time    0.0043: real time    0.0060
    --------------------------------------------
      LOOP:  cpu time    0.3383: real time    0.3527

 eigenvalue-minimisations  :    64
 total energy-change (2. order) : 0.2789207E+01  (-0.5149739E+00)
 number of electron       8.0000002 magnetization 
 augmentation part        0.1956694 magnetization 

 Broyden mixing:
  rms(total) = 0.42242E+00    rms(broyden)= 0.42233E+00
  rms(prec ) = 0.54778E+00
  weight for this iteration     100.00

 eigenvalues of (default mixing * dielectric matrix)
  average eigenvalue GAMMA=   1.2987
  1.2987

 Free energy of the ion-electron system (eV)
  ---------------------------------------------------
  alpha Z        PSCENC =         0.23730588
  Ewald energy   TEWEN  =       127.49138017
  -Hartree energ DENC   =      -263.09642909
  -exchange      EXHF   =         0.00000000
  -V(xc)+E(xc)   XCENC  =        23.13503803
  PAW double counting   =       235.39808320     -236.17287395
  entropy T*S    EENTRO =        -0.00000000
  eigenvalues    EBANDS =      -108.65957303
  atomic energy  EATOM  =       197.04175453
  Solvation  Ediel_sol  =         0.00000000
  ---------------------------------------------------
  free energy    TOTEN  =       -24.62531426 eV

  energy without entropy =      -24.62531426  energy(sigma->0) =      -24.62531426


--------------------------------------------------------------------------------------------------------




--------------------------------------- Iteration      1(   7)  ---------------------------------------


    POTLOK:  cpu time    0.1325: real time    0.1325
    SETDIJ:  cpu time    0.0015: real time    0.0015
    EDDIAG:  cpu time    0.0347: real time    0.0347
  RMM-DIIS:  cpu time    0.1393: real time    0.1393
    ORTHCH:  cpu time    0.0019: real time    0.0019
       DOS:  cpu time    0.0002: real time    0.0002
    CHARGE:  cpu time    0.0172: real time    0.0172
    MIXING:  cpu time    0.0042: real time    0.0042
    --------------------------------------------
      LOOP:  cpu time    0.3314: real time    0.3315

 eigenvalue-minimisations  :    64
 total energy-change (2. order) : 0.4732788E+00  (-0.1128752E+00)
 number of electron       8.0000002 magnetization 
 augmentation part        0.1855385 magnetization 

 Broyden mixing:
  rms(total) = 0.22535E+00    rms(broyden)= 0.22529E+00
  rms(prec ) = 0.27296E+00
  weight for this iteration     100.00

 eigenvalues of (default mixing * dielectric matrix)
  average eigenvalue GAMMA=   1.8399
  1.4466  2.2332

 Free energy of the ion-electron system (eV)
  ---------------------------------------------------
  alpha Z        PSCENC =         0.23730588
  Ewald energy   TEWEN  =       127.49138017
  -Hartree energ DENC   =      -274.42403835
  -exchange      EXHF   =         0.00000000
  -V(xc)+E(xc)   XCENC  =        23.97039278
  PAW double counting   =       356.93189733     -357.74321865
  entropy T*S    EENTRO =        -0.00000000
  eigenvalues    EBANDS =       -97.65750914
  atomic energy  EATOM  =       197.04175453
  Solvation  Ediel_sol  =         0.00000000
  ---------------------------------------------------
  free energy    TOTEN  =       -24.15203546 eV

  energy without entropy =      -24.15203546  energy(sigma->0) =      -24.15203546


--------------------------------------------------------------------------------------------------------




--------------------------------------- Iteration      1(   8)  ---------------------------------------


    POTLOK:  cpu time    0.1324: real time    0.1324
    SETDIJ:  cpu time    0.0015: real time    0.0014
    EDDIAG:  cpu time    0.0339: real time    0.0339
  RMM-DIIS:  cpu time    0.1438: real time    0.1438
    ORTHCH:  cpu time    0.0015: real time    0.0015
       DOS:  cpu time    0.0002: real time    0.0002
    CHARGE:  cpu time    0.0172: real time    0.0172
    MIXING:  cpu time    0.0043: real time    0.0043
    --------------------------------------------
      LOOP:  cpu time    0.3347: real time    0.3347

 eigenvalue-minimisations  :    64
 total energy-change (2. order) : 0.1447473E+00  (-0.1623645E-01)
 number of electron       8.0000002 magnetization 
 augmentation part        0.1841828 magnetization 

 Broyden mixing:
  rms(total) = 0.22802E-01    rms(broyden)= 0.22781E-01
  rms(prec ) = 0.52433E-01
  weight for this iteration     100.00

 eigenvalues of (default mixing * dielectric matrix)
  average eigenvalue GAMMA=   1.5425
  2.2481  0.9827  1.3968

 Free energy of the ion-electron system (eV)
  ---------------------------------------------------
  alpha Z        PSCENC =         0.23730588
  Ewald energy   TEWEN  =       127.49138017
  -Hartree energ DENC   =      -279.81035933
  -exchange      EXHF   =         0.00000000
  -V(xc)+E(xc)   XCENC  =        24.50496324
  PAW double counting   =       462.17747148     -462.95721847
  entropy T*S    EENTRO =        -0.00000000
  eigenvalues    EBANDS =       -92.69258563
  atomic energy  EATOM  =       197.04175453
  Solvation  Ediel_sol  =         0.00000000
  ---------------------------------------------------
  free energy    TOTEN  =       -24.00728815 eV

  energy without entropy =      -24.00728815  energy(sigma->0) =      -24.00728815


--------------------------------------------------------------------------------------------------------




--------------------------------------- Iteration      1(   9)  ---------------------------------------


    POTLOK:  cpu time    0.1321: real time    0.1322
    SETDIJ:  cpu time    0.0014: real time    0.0014
    EDDIAG:  cpu time    0.0339: real time    0.0339
  RMM-DIIS:  cpu time    0.1437: real time    0.1437
    ORTHCH:  cpu time    0.0017: real time    0.0017
       DOS:  cpu time    0.0002: real time    0.0002
    CHARGE:  cpu time    0.0169: real time    0.0169
    MIXING:  cpu time    0.0044: real time    0.0044
    --------------------------------------------
      LOOP:  cpu time    0.3343: real time    0.3344

 eigenvalue-minimisations  :    64
 total energy-change (2. order) : 0.5574809E-02  (-0.1085296E-02)
 number of electron       8.0000002 magnetization 
 augmentation part        0.1836310 magnetization 

 Broyden mixing:
  rms(total) = 0.19358E-01    rms(broyden)= 0.19355E-01
  rms(prec ) = 0.40090E-01
  weight for this iteration     100.00

 eigenvalues of (default mixing * dielectric matrix)
  average eigenvalue GAMMA=   2.0864
  2.9891  2.9891  1.0026  1.3649

 Free energy of the ion-electron system (eV)
  ---------------------------------------------------
  alpha Z        PSCENC =         0.23730588
  Ewald energy   TEWEN  =       127.49138017
  -Hartree energ DENC   =      -281.04884113
  -exchange      EXHF   =         0.00000000
  -V(xc)+E(xc)   XCENC  =        24.57263897
  PAW double counting   =       464.99775404     -465.78024837
  entropy T*S    EENTRO =        -0.00000000
  eigenvalues    EBANDS =       -91.51345742
  atomic energy  EATOM  =       197.04175453
  Solvation  Ediel_sol  =         0.00000000
  ---------------------------------------------------
  free energy    TOTEN  =       -24.00171334 eV

  energy without entropy =      -24.00171334  energy(sigma->0) =      -24.00171334


--------------------------------------------------------------------------------------------------------




--------------------------------------- Iteration      1(  10)  ---------------------------------------


    POTLOK:  cpu time    0.1276: real time    0.1277
    SETDIJ:  cpu time    0.0014: real time    0.0014
    EDDIAG:  cpu time    0.0339: real time    0.0339
  RMM-DIIS:  cpu time    0.1410: real time    0.1410
    ORTHCH:  cpu time    0.0017: real time    0.0017
       DOS:  cpu time    0.0002: real time    0.0002
    CHARGE:  cpu time    0.0171: real time    0.0171
    MIXING:  cpu time    0.0047: real time    0.0055
    --------------------------------------------
      LOOP:  cpu time    0.3275: real time    0.3284

 eigenvalue-minimisations  :    64
 total energy-change (2. order) : 0.6286465E-02  (-0.2462571E-02)
 number of electron       8.0000002 magnetization 
 augmentation part        0.1825943 magnetization 

 Broyden mixing:
  rms(total) = 0.27425E-01    rms(broyden)= 0.27424E-01
  rms(prec ) = 0.35142E-01
  weight for this iteration     100.00

 eigenvalues of (default mixing * dielectric matrix)
  average eigenvalue GAMMA=   1.7859
  3.0692  2.4104  1.2335  1.2335  0.9828

 Free energy of the ion-electron system (eV)
  ---------------------------------------------------
  alpha Z        PSCENC =         0.23730588
  Ewald energy   TEWEN  =       127.49138017
  -Hartree energ DENC   =      -283.23085645
  -exchange      EXHF   =         0.00000000
  -V(xc)+E(xc)   XCENC  =        24.64311649
  PAW double counting   =       449.62712059     -450.41308538
  entropy T*S    EENTRO =        -0.00000000
  eigenvalues    EBANDS =       -89.39216268
  atomic energy  EATOM  =       197.04175453
  Solvation  Ediel_sol  =         0.00000000
  ---------------------------------------------------
  free energy    TOTEN  =       -23.99542687 eV

  energy without entropy =      -23.99542687  energy(sigma->0) =      -23.99542687


--------------------------------------------------------------------------------------------------------




--------------------------------------- Iteration      1(  11)  ---------------------------------------


    POTLOK:  cpu time    0.1275: real time    0.1275
    SETDIJ:  cpu time    0.0014: real time    0.0014
    EDDIAG:  cpu time    0.0337: real time    0.0337
  RMM-DIIS:  cpu time    0.1408: real time    0.1408
    ORTHCH:  cpu time    0.0015: real time    0.0015
       DOS:  cpu time    0.0002: real time    0.0002
    CHARGE:  cpu time    0.0178: real time    0.0178
    MIXING:  cpu time    0.0047: real time    0.0047
    --------------------------------------------
      LOOP:  cpu time    0.3274: real time    0.3275

 eigenvalue-minimisations  :    64
 total energy-change (2. order) :-0.8190297E-03  (-0.8755771E-03)
 number of electron       8.0000002 magnetization 
 augmentation part        0.1829790 magnetization 

 Broyden mixing:
  rms(total) = 0.90703E-02    rms(broyden)= 0.90671E-02
  rms(prec ) = 0.14755E-01
  weight for this iteration     100.00

 eigenvalues of (default mixing * dielectric matrix)
  average eigenvalue GAMMA=   2.2679
  4.8107  3.0722  2.4245  1.2656  1.0173  1.0173

 Free energy of the ion-electron system (eV)
  ---------------------------------------------------
  alpha Z        PSCENC =         0.23730588
  Ewald energy   TEWEN  =       127.49138017
  -Hartree energ DENC   =      -283.11797976
  -exchange      EXHF   =         0.00000000
  -V(xc)+E(xc)   XCENC  =        24.65715870
  PAW double counting   =       458.58996733     -459.36824653
  entropy T*S    EENTRO =        -0.00000000
  eigenvalues    EBANDS =       -89.52758621
  atomic energy  EATOM  =       197.04175453
  Solvation  Ediel_sol  =         0.00000000
  ---------------------------------------------------
  free energy    TOTEN  =       -23.99624590 eV

  energy without entropy =      -23.99624590  energy(sigma->0) =      -23.99624590


--------------------------------------------------------------------------------------------------------




--------------------------------------- Iteration      1(  12)  ---------------------------------------


    POTLOK:  cpu time    0.1217: real time    0.1217
    SETDIJ:  cpu time    0.0016: real time    0.0016
    EDDIAG:  cpu time    0.0335: real time    0.0335
  RMM-DIIS:  cpu time    0.1432: real time    0.1432
    ORTHCH:  cpu time    0.0017: real time    0.0017
       DOS:  cpu time    0.0002: real time    0.0002
    CHARGE:  cpu time    0.0172: real time    0.0172
    MIXING:  cpu time    0.0048: real time    0.0048
    --------------------------------------------
      LOOP:  cpu time    0.3239: real time    0.3239

 eigenvalue-minimisations  :    64
 total energy-change (2. order) :-0.9293075E-02  (-0.3039740E-03)
 number of electron       8.0000002 magnetization 
 augmentation part        0.1831673 magnetization 

 Broyden mixing:
  rms(total) = 0.11813E-01    rms(broyden)= 0.11812E-01
  rms(prec ) = 0.15545E-01
  weight for this iteration     100.00

 eigenvalues of (default mixing * dielectric matrix)
  average eigenvalue GAMMA=   2.0135
  4.7746  2.9238  2.4225  1.2082  1.0111  1.0111  0.7433

 Free energy of the ion-electron system (eV)
  ---------------------------------------------------
  alpha Z        PSCENC =         0.23730588
  Ewald energy   TEWEN  =       127.49138017
  -Hartree energ DENC   =      -283.33458522
  -exchange      EXHF   =         0.00000000
  -V(xc)+E(xc)   XCENC  =        24.64896888
  PAW double counting   =       455.35381040     -456.13138099
  entropy T*S    EENTRO =        -0.00000000
  eigenvalues    EBANDS =       -89.31279262
  atomic energy  EATOM  =       197.04175453
  Solvation  Ediel_sol  =         0.00000000
  ---------------------------------------------------
  free energy    TOTEN  =       -24.00553898 eV

  energy without entropy =      -24.00553898  energy(sigma->0) =      -24.00553898


--------------------------------------------------------------------------------------------------------




--------------------------------------- Iteration      1(  13)  ---------------------------------------


    POTLOK:  cpu time    0.1206: real time    0.1207
    SETDIJ:  cpu time    0.0014: real time    0.0014
    EDDIAG:  cpu time    0.0336: real time    0.0336
  RMM-DIIS:  cpu time    0.1416: real time    0.1416
    ORTHCH:  cpu time    0.0016: real time    0.0016
       DOS:  cpu time    0.0002: real time    0.0002
    CHARGE:  cpu time    0.0170: real time    0.0170
    MIXING:  cpu time    0.0050: real time    0.0050
    --------------------------------------------
      LOOP:  cpu time    0.3209: real time    0.3210

 eigenvalue-minimisations  :    64
 total energy-change (2. order) :-0.6118889E-03  (-0.1031037E-03)
 number of electron       8.0000002 magnetization 
 augmentation part        0.1829211 magnetization 

 Broyden mixing:
  rms(total) = 0.43111E-02    rms(broyden)= 0.43108E-02
  rms(prec ) = 0.60702E-02
  weight for this iteration     100.00

 eigenvalues of (default mixing * dielectric matrix)
  average eigenvalue GAMMA=   2.4129
  6.0856  4.0830  2.4605  2.3602  1.2176  1.2176  0.9914  0.8874

 Free energy of the ion-electron system (eV)
  ---------------------------------------------------
  alpha Z        PSCENC =         0.23730588
  Ewald energy   TEWEN  =       127.49138017
  -Hartree energ DENC   =      -283.51570490
  -exchange      EXHF   =         0.00000000
  -V(xc)+E(xc)   XCENC  =        24.65394678
  PAW double counting   =       455.17828034     -455.95819786
  entropy T*S    EENTRO =        -0.00000000
  eigenvalues    EBANDS =       -89.13491579
  atomic energy  EATOM  =       197.04175453
  Solvation  Ediel_sol  =         0.00000000
  ---------------------------------------------------
  free energy    TOTEN  =       -24.00615086 eV

  energy without entropy =      -24.00615086  energy(sigma->0) =      -24.00615086


--------------------------------------------------------------------------------------------------------




--------------------------------------- Iteration      1(  14)  ---------------------------------------


    POTLOK:  cpu time    0.1188: real time    0.1188
    SETDIJ:  cpu time    0.0014: real time    0.0014
    EDDIAG:  cpu time    0.0333: real time    0.0333
  RMM-DIIS:  cpu time    0.1420: real time    0.1420
    ORTHCH:  cpu time    0.0017: real time    0.0017
       DOS:  cpu time    0.0002: real time    0.0002
    CHARGE:  cpu time    0.0169: real time    0.0169
    MIXING:  cpu time    0.0051: real time    0.0051
    --------------------------------------------
      LOOP:  cpu time    0.3194: real time    0.3194

 eigenvalue-minimisations  :    64
 total energy-change (2. order) :-0.2816403E-02  (-0.1166869E-03)
 number of electron       8.0000002 magnetization 
 augmentation part        0.1828133 magnetization 

 Broyden mixing:
  rms(total) = 0.26703E-02    rms(broyden)= 0.26687E-02
  rms(prec ) = 0.35286E-02
  weight for this iteration     100.00

 eigenvalues of (default mixing * dielectric matrix)
  average eigenvalue GAMMA=   2.3440
  6.4271  3.9161  2.6144  2.3320  1.4237  1.2407  1.2407  0.9882  0.9133

 Free energy of the ion-electron system (eV)
  ---------------------------------------------------
  alpha Z        PSCENC =         0.23730588
  Ewald energy   TEWEN  =       127.49138017
  -Hartree energ DENC   =      -283.50917903
  -exchange      EXHF   =         0.00000000
  -V(xc)+E(xc)   XCENC  =        24.64398152
  PAW double counting   =       454.53419980     -455.31527798
  entropy T*S    EENTRO =        -0.00000000
  eigenvalues    EBANDS =       -89.13313215
  atomic energy  EATOM  =       197.04175453
  Solvation  Ediel_sol  =         0.00000000
  ---------------------------------------------------
  free energy    TOTEN  =       -24.00896727 eV

  energy without entropy =      -24.00896727  energy(sigma->0) =      -24.00896727


--------------------------------------------------------------------------------------------------------




--------------------------------------- Iteration      1(  15)  ---------------------------------------


    POTLOK:  cpu time    0.1189: real time    0.1190
    SETDIJ:  cpu time    0.0014: real time    0.0014
    EDDIAG:  cpu time    0.0332: real time    0.0332
  RMM-DIIS:  cpu time    0.1430: real time    0.1430
    ORTHCH:  cpu time    0.0014: real time    0.0014
       DOS:  cpu time    0.0002: real time    0.0002
    CHARGE:  cpu time    0.0168: real time    0.0168
    MIXING:  cpu time    0.0052: real time    0.0052
    --------------------------------------------
      LOOP:  cpu time    0.3202: real time    0.3202

 eigenvalue-minimisations  :    64
 total energy-change (2. order) :-0.2624094E-03  (-0.3751490E-05)
 number of electron       8.0000002 magnetization 
 augmentation part        0.1827762 magnetization 

 Broyden mixing:
  rms(total) = 0.15965E-02    rms(broyden)= 0.15964E-02
  rms(prec ) = 0.21415E-02
  weight for this iteration     100.00

 eigenvalues of (default mixing * dielectric matrix)
  average eigenvalue GAMMA=   2.5185
  7.5077  4.7894  2.7986  2.6064  2.0874  1.2568  1.2568  0.9912  0.9912  0.8991

 Free energy of the ion-electron system (eV)
  ---------------------------------------------------
  alpha Z        PSCENC =         0.23730588
  Ewald energy   TEWEN  =       127.49138017
  -Hartree energ DENC   =      -283.51317190
  -exchange      EXHF   =         0.00000000
  -V(xc)+E(xc)   XCENC  =        24.64488797
  PAW double counting   =       454.69384508     -455.47441860
  entropy T*S    EENTRO =        -0.00000000
  eigenvalues    EBANDS =       -89.13081281
  atomic energy  EATOM  =       197.04175453
  Solvation  Ediel_sol  =         0.00000000
  ---------------------------------------------------
  free energy    TOTEN  =       -24.00922968 eV

  energy without entropy =      -24.00922968  energy(sigma->0) =      -24.00922968


--------------------------------------------------------------------------------------------------------




--------------------------------------- Iteration      1(  16)  ---------------------------------------


    POTLOK:  cpu time    0.1200: real time    0.1200
    SETDIJ:  cpu time    0.0015: real time    0.0015
    EDDIAG:  cpu time    0.0332: real time    0.0332
  RMM-DIIS:  cpu time    0.1410: real time    0.1410
    ORTHCH:  cpu time    0.0017: real time    0.0017
       DOS:  cpu time    0.0002: real time    0.0002
    CHARGE:  cpu time    0.0170: real time    0.0170
    MIXING:  cpu time    0.0054: real time    0.0054
    --------------------------------------------
      LOOP:  cpu time    0.3198: real time    0.3198

 eigenvalue-minimisations  :    64
 total energy-change (2. order) :-0.2032986E-03  (-0.8386025E-05)
 number of electron       8.0000002 magnetization 
 augmentation part        0.1828178 magnetization 

 Broyden mixing:
  rms(total) = 0.46394E-03    rms(broyden)= 0.46353E-03
  rms(prec ) = 0.65204E-03
  weight for this iteration     100.00

 eigenvalues of (default mixing * dielectric matrix)
  average eigenvalue GAMMA=   2.4962
  7.7000  4.8133  3.2770  2.4128  1.9614  1.9614  1.2324  1.2324  1.0164  0.9253
  0.9253

 Free energy of the ion-electron system (eV)
  ---------------------------------------------------
  alpha Z        PSCENC =         0.23730588
  Ewald energy   TEWEN  =       127.49138017
  -Hartree energ DENC   =      -283.47301698
  -exchange      EXHF   =         0.00000000
  -V(xc)+E(xc)   XCENC  =        24.64339761
  PAW double counting   =       454.68400394     -455.46408293
  entropy T*S    EENTRO =        -0.00000000
  eigenvalues    EBANDS =       -89.17017519
  atomic energy  EATOM  =       197.04175453
  Solvation  Ediel_sol  =         0.00000000
  ---------------------------------------------------
  free energy    TOTEN  =       -24.00943298 eV

  energy without entropy =      -24.00943298  energy(sigma->0) =      -24.00943298


--------------------------------------------------------------------------------------------------------




--------------------------------------- Iteration      1(  17)  ---------------------------------------


    POTLOK:  cpu time    0.1207: real time    0.1207
    SETDIJ:  cpu time    0.0014: real time    0.0014
    EDDIAG:  cpu time    0.0332: real time    0.0332
  RMM-DIIS:  cpu time    0.1427: real time    0.1427
    ORTHCH:  cpu time    0.0016: real time    0.0016
       DOS:  cpu time    0.0002: real time    0.0002
    CHARGE:  cpu time    0.0168: real time    0.0168
    MIXING:  cpu time    0.0056: real time    0.0056
    --------------------------------------------
      LOOP:  cpu time    0.3222: real time    0.3222

 eigenvalue-minimisations  :    64
 total energy-change (2. order) :-0.4365731E-04  (-0.1972030E-05)
 number of electron       8.0000002 magnetization 
 augmentation part        0.1827910 magnetization 

 Broyden mixing:
  rms(total) = 0.52752E-03    rms(broyden)= 0.52750E-03
  rms(prec ) = 0.73469E-03
  weight for this iteration     100.00

 eigenvalues of (default mixing * dielectric matrix)
  average eigenvalue GAMMA=   2.5769
  8.4266  5.2815  3.8683  2.5127  2.5127  1.8381  1.2875  1.2875  1.0818  0.9907
  0.9177  0.9177

 Free energy of the ion-electron system (eV)
  ---------------------------------------------------
  alpha Z        PSCENC =         0.23730588
  Ewald energy   TEWEN  =       127.49138017
  -Hartree energ DENC   =      -283.51180353
  -exchange      EXHF   =         0.00000000
  -V(xc)+E(xc)   XCENC  =        24.64516864
  PAW double counting   =       454.66310052     -455.44347617
  entropy T*S    EENTRO =        -0.00000000
  eigenvalues    EBANDS =       -89.13290667
  atomic energy  EATOM  =       197.04175453
  Solvation  Ediel_sol  =         0.00000000
  ---------------------------------------------------
  free energy    TOTEN  =       -24.00947663 eV

  energy without entropy =      -24.00947663  energy(sigma->0) =      -24.00947663


--------------------------------------------------------------------------------------------------------




--------------------------------------- Iteration      1(  18)  ---------------------------------------


    POTLOK:  cpu time    0.1231: real time    0.1231
    SETDIJ:  cpu time    0.0014: real time    0.0014
    EDDIAG:  cpu time    0.0331: real time    0.0331
  RMM-DIIS:  cpu time    0.1416: real time    0.1416
    ORTHCH:  cpu time    0.0015: real time    0.0015
       DOS:  cpu time    0.0002: real time    0.0002
    CHARGE:  cpu time    0.0168: real time    0.0168
    MIXING:  cpu time    0.0057: real time    0.0057
    --------------------------------------------
      LOOP:  cpu time    0.3235: real time    0.3235

 eigenvalue-minimisations  :    64
 total energy-change (2. order) :-0.9685635E-05  (-0.5088807E-06)
 number of electron       8.0000002 magnetization 
 augmentation part        0.1828035 magnetization 

 Broyden mixing:
  rms(total) = 0.70698E-04    rms(broyden)= 0.70586E-04
  rms(prec ) = 0.96150E-04
  weight for this iteration     100.00

 eigenvalues of (default mixing * dielectric matrix)
  average eigenvalue GAMMA=   2.6267
  8.5011  5.5185  3.7478  3.3480  2.3906  2.3906  1.7921  1.2629  1.2629  0.9072
  0.9803  0.9803  1.0644

 Free energy of the ion-electron system (eV)
  ---------------------------------------------------
  alpha Z        PSCENC =         0.23730588
  Ewald energy   TEWEN  =       127.49138017
  -Hartree energ DENC   =      -283.49356974
  -exchange      EXHF   =         0.00000000
  -V(xc)+E(xc)   XCENC  =        24.64432688
  PAW double counting   =       454.65723733     -455.43743507
  entropy T*S    EENTRO =        -0.00000000
  eigenvalues    EBANDS =       -89.15048630
  atomic energy  EATOM  =       197.04175453
  Solvation  Ediel_sol  =         0.00000000
  ---------------------------------------------------
  free energy    TOTEN  =       -24.00948632 eV

  energy without entropy =      -24.00948632  energy(sigma->0) =      -24.00948632


--------------------------------------------------------------------------------------------------------




--------------------------------------- Iteration      1(  19)  ---------------------------------------


    POTLOK:  cpu time    0.1246: real time    0.1247
    SETDIJ:  cpu time    0.0014: real time    0.0014
    EDDIAG:  cpu time    0.0334: real time    0.0334
  RMM-DIIS:  cpu time    0.1137: real time    0.1138
    ORTHCH:  cpu time    0.0013: real time    0.0013
       DOS:  cpu time    0.0002: real time    0.0002
    CHARGE:  cpu time    0.0167: real time    0.0167
    MIXING:  cpu time    0.0059: real time    0.0059
    --------------------------------------------
      LOOP:  cpu time    0.2973: real time    0.2974

 eigenvalue-minimisations  :    48
 total energy-change (2. order) :-0.4183623E-05  (-0.5528334E-07)
 number of electron       8.0000002 magnetization 
 augmentation part        0.1828082 magnetization 

 Broyden mixing:
  rms(total) = 0.97689E-04    rms(broyden)= 0.97660E-04
  rms(prec ) = 0.13499E-03
  weight for this iteration     100.00

 eigenvalues of (default mixing * dielectric matrix)
  average eigenvalue GAMMA=   2.5558
  8.5628  5.6078  3.8575  3.6665  2.4210  2.4210  1.9510  1.2605  1.2605  1.0351
  0.9156  0.9156  0.9531  0.9531

 Free energy of the ion-electron system (eV)
  ---------------------------------------------------
  alpha Z        PSCENC =         0.23730588
  Ewald energy   TEWEN  =       127.49138017
  -Hartree energ DENC   =      -283.48905505
  -exchange      EXHF   =         0.00000000
  -V(xc)+E(xc)   XCENC  =        24.64398231
  PAW double counting   =       454.63111822     -455.41129793
  entropy T*S    EENTRO =        -0.00000000
  eigenvalues    EBANDS =       -89.15467863
  atomic energy  EATOM  =       197.04175453
  Solvation  Ediel_sol  =         0.00000000
  ---------------------------------------------------
  free energy    TOTEN  =       -24.00949050 eV

  energy without entropy =      -24.00949050  energy(sigma->0) =      -24.00949050


--------------------------------------------------------------------------------------------------------




--------------------------------------- Iteration      1(  20)  ---------------------------------------


    POTLOK:  cpu time    0.1265: real time    0.1265
    SETDIJ:  cpu time    0.0015: real time    0.0014
    EDDIAG:  cpu time    0.0331: real time    0.0331
  RMM-DIIS:  cpu time    0.1133: real time    0.1133
    ORTHCH:  cpu time    0.0014: real time    0.0014
       DOS:  cpu time    0.0002: real time    0.0002
    --------------------------------------------
      LOOP:  cpu time    0.2760: real time    0.2760

 eigenvalue-minimisations  :    48
 total energy-change (2. order) :-0.9752906E-06  (-0.1329683E-07)
 number of electron       8.0000002 magnetization 
 augmentation part        0.1828082 magnetization 

 Free energy of the ion-electron system (eV)
  ---------------------------------------------------
  alpha Z        PSCENC =         0.23730588
  Ewald energy   TEWEN  =       127.49138017
  -Hartree energ DENC   =      -283.49122833
  -exchange      EXHF   =         0.00000000
  -V(xc)+E(xc)   XCENC  =        24.64406198
  PAW double counting   =       454.63102172     -455.41123271
  entropy T*S    EENTRO =        -0.00000000
  eigenvalues    EBANDS =       -89.15255471
  atomic energy  EATOM  =       197.04175453
  Solvation  Ediel_sol  =         0.00000000
  ---------------------------------------------------
  free energy    TOTEN  =       -24.00949148 eV

  energy without entropy =      -24.00949148  energy(sigma->0) =      -24.00949148


--------------------------------------------------------------------------------------------------------




 average (electrostatic) potential at core
  the test charge radii are     0.5201  0.6991
  (the norm of the test charge is              1.0000)
       1 -41.4484       2 -41.3638       3 -41.3709       4 -41.5853       5 -58.0201
 
 
 
 E-fermi :  -8.2053     XC(G=0):  -0.6924     alpha+bet : -0.2064


 k-point     1 :       0.2500    0.2500    0.2500
  band No.  band energies     occupation 
      1     -16.8193      2.00000
      2      -9.3529      2.00000
      3      -9.2146      2.00000
      4      -9.1897      2.00000
      5      -0.3294      0.00000
      6       0.5454      0.00000
      7       0.6546      0.00000
      8       0.6858      0.00000

 k-point     2 :      -0.2500    0.2500    0.2500
  band No.  band energies     occupation 
      1     -16.8192      2.00000
      2      -9.3529      2.00000
      3      -9.2146      2.00000
      4      -9.1896      2.00000
      5      -0.3313      0.00000
      6       0.5428      0.00000
      7       0.6578      0.00000
      8       0.6933      0.00000

 k-point     3 :       0.2500   -0.2500    0.2500
  band No.  band energies     occupation 
      1     -16.8193      2.00000
      2      -9.3529      2.00000
      3      -9.2146      2.00000
      4      -9.1896      2.00000
      5      -0.3259      0.00000
      6       0.5344      0.00000
      7       0.6446      0.00000
      8       0.6771      0.00000

 k-point     4 :      -0.2500   -0.2500    0.2500
  band No.  band energies     occupation 
      1     -16.8192      2.00000
      2      -9.3528      2.00000
      3      -9.2145      2.00000
      4      -9.1896      2.00000
      5      -0.3343      0.00000
      6       0.5545      0.00000
      7       0.6703      0.00000
      8       0.6954      0.00000


--------------------------------------------------------------------------------------------------------


 soft charge-density along one line, spin component           1
         0         1         2         3         4         5         6         7         8         9
 total charge-density along one line
 
 pseudopotential strength for first ion, spin component:           1
 -2.341  -4.033  -0.001  -0.001   0.001
 -4.033  -6.863  -0.003  -0.004   0.002
 -0.001  -0.003  -0.338   0.002  -0.001
 -0.001  -0.004   0.002  -0.336  -0.001
  0.001   0.002  -0.001  -0.001  -0.339
 total augmentation occupancy for first ion, spin component:           1
  3.520  -0.635   0.236   0.322  -0.138
 -0.635   0.128  -0.044  -0.060   0.025
  0.236  -0.044   0.022   0.018  -0.008
  0.322  -0.060   0.018   0.033  -0.010
 -0.138   0.025  -0.008  -0.010   0.013


------------------------ aborting loop because EDIFF is reached ----------------------------------------


    CHARGE:  cpu time    0.0171: real time    0.0171
    FORLOC:  cpu time    0.0110: real time    0.0110
    FORNL :  cpu time    0.0175: real time    0.0175
    STRESS:  cpu time    0.1402: real time    0.1406
    FORCOR:  cpu time    0.1257: real time    0.1257
    FORHAR:  cpu time    0.0386: real time    0.0386
    MIXING:  cpu time    0.0061: real time    0.0061
    OFIELD:  cpu time    0.0000: real time    0.0000

  FORCE on cell =-STRESS in cart. coord.  units (eV):
  Direction    XX          YY          ZZ          XY          YZ          ZX
  --------------------------------------------------------------------------------------
  Alpha Z     0.23731     0.23731     0.23731
  Ewald      41.62048    41.96094    43.90991     1.41515    -0.63939    -1.98065
  Hartree    93.86378    94.23093    95.39961     0.72558     0.03317    -0.92973
  E(xc)     -27.09871   -27.10480   -27.11174     0.00885    -0.00039    -0.00967
  Local    -194.55936  -195.17141  -197.87581    -2.04701     0.35207     2.69340
  n-local   -15.62901   -15.65299   -15.74926     0.03189     0.02945    -0.01469
  augment     0.12261     0.12119     0.11646    -0.00007     0.00251     0.00113
  Kinetic   100.19128   100.45413   100.89257    -0.46138    -0.00100     0.47821
  Fock        0.00000     0.00000     0.00000     0.00000     0.00000     0.00000
  -------------------------------------------------------------------------------------
  Total      -1.25161    -0.92471    -0.18096    -0.32699    -0.22357     0.23801
  in kB      -1.96437    -1.45131    -0.28401    -0.51320    -0.35089     0.37355
  external pressure =       -1.23 kB  Pullay stress =        0.00 kB

  kinetic pressure (ideal gas correction) =      0.00 kB
  total pressure  =     -1.23 kB
  Total+kin.    -1.964      -1.451      -0.284      -0.513      -0.351       0.374

 VOLUME and BASIS-vectors are now :
 -----------------------------------------------------------------------------
  energy-cutoff  :      400.00
  volume of cell :     1020.84
      direct lattice vectors                 reciprocal lattice vectors
    10.154503059  0.000000000  0.000000000     0.098478477 -0.001920864  0.002819866
     0.196828822 10.090981156  0.000000000     0.000000000  0.099098391 -0.000301585
    -0.284675837  0.030318514  9.962415340     0.000000000  0.000000000  0.100377265

  length of vectors
    10.154503059 10.092900588  9.966527929     0.098537566  0.099098850  0.100377265


 FORCES acting on ions
    electron-ion (+dipol)            ewald-force                    non-local-force                 convergence-correction
 -----------------------------------------------------------------------------------------------
   -.171E+02 0.291E+02 0.400E+02   0.187E+02 -.320E+02 -.440E+02   -.177E+01 0.301E+01 0.411E+01   0.804E-04 -.148E-03 -.182E-03
   0.514E+02 -.594E+01 0.325E+01   -.560E+02 0.656E+01 -.363E+01   0.518E+01 -.559E+00 0.297E+00   -.254E-03 0.248E-04 -.136E-04
   -.240E+02 -.459E+02 0.109E+01   0.260E+02 0.499E+02 -.116E+01   -.243E+01 -.461E+01 0.115E+00   0.118E-03 0.224E-03 0.125E-06
   -.105E+02 0.252E+02 -.457E+02   0.118E+02 -.280E+02 0.509E+02   -.109E+01 0.270E+01 -.486E+01   0.509E-04 -.125E-03 0.212E-03
   0.483E+00 -.312E+01 0.176E+01   -.614E+00 0.355E+01 -.208E+01   -.163E+00 0.445E-01 -.133E+00   -.272E-04 -.444E-04 0.315E-04
 -----------------------------------------------------------------------------------------------
   0.272E+00 -.592E+00 0.468E+00   0.533E-14 0.355E-14 0.711E-14   -.273E+00 0.591E+00 -.468E+00   -.320E-04 -.682E-04 0.481E-04
 
 
 POSITION                                       TOTAL-FORCE (eV/Angst)
 -----------------------------------------------------------------------------------
      5.43645      4.11357      3.59266        -0.118298      0.138525      0.141587
      3.96933      4.85489      4.36665         0.613391      0.062667     -0.083012
      5.59547      5.71962      4.41245        -0.387681     -0.546719      0.047139
      5.29067      4.21470      5.36689         0.186551     -0.126612      0.340412
      5.07672      4.72980      4.43530        -0.294292      0.471762     -0.446264
 -----------------------------------------------------------------------------------
    total drift:                               -0.000330     -0.000377     -0.000138


--------------------------------------------------------------------------------------------------------



  FREE ENERGIE OF THE ION-ELECTRON SYSTEM (eV)
  ---------------------------------------------------
  free  energy   TOTEN  =       -24.00949148 eV

  energy  without entropy=      -24.00949148  energy(sigma->0) =      -24.00949148
 


--------------------------------------------------------------------------------------------------------


    POTLOK:  cpu time    0.1289: real time    0.1289


--------------------------------------------------------------------------------------------------------


 stress matrix after NEB project (eV)
     -1.25161     -0.32699      0.23801
     -0.32699     -0.92471     -0.22357
      0.23801     -0.22357     -0.18096
  FORCES: max atom, RMS     0.712965    0.559777
  FORCE total and by dimension    1.251698    0.613391
  Stress total and by dimension    1.697492    1.251613
           RANDOM_SEED =         581356223                0                0
           RANDOM_SEED =         581356223               30                0
   IONSTEP:  cpu time    0.0029: real time    0.0077

  ENERGY OF THE ELECTRON-ION-THERMOSTAT SYSTEM (eV)
  ---------------------------------------------------
% ion-electron   TOTEN  =       -24.009491  see above
  kinetic energy EKIN   =         0.000328
  kin. lattice  EKIN_LAT=         0.000000  (temperature    0.63 K)
  nose potential ES     =         0.000000
  nose kinetic   EPS    =         0.000000
  ---------------------------------------------------
  total energy   ETOTAL =       -24.009164 eV

  maximum distance moved by ions :      0.16E-03

    WAVPRE:  cpu time    0.0372: real time    0.0372
    FEWALD:  cpu time    0.0003: real time    0.0003
    ORTHCH:  cpu time    0.0081: real time    0.0081
     LOOP+:  cpu time    6.4271: real time    6.4814


--------------------------------------- Iteration      2(   1)  ---------------------------------------


    POTLOK:  cpu time    0.1277: real time    0.1277
    SETDIJ:  cpu time    0.0014: real time    0.0014
     EDDAV:  cpu time    0.1835: real time    0.1836
       DOS:  cpu time    0.0002: real time    0.0002
    CHARGE:  cpu time    0.0165: real time    0.0165
    MIXING:  cpu time    0.0039: real time    0.0039
    --------------------------------------------
      LOOP:  cpu time    0.3333: real time    0.3334

 eigenvalue-minimisations  :    96
 total energy-change (2. order) :-0.2559538E-02  (-0.2791737E-03)
 number of electron       8.0000002 magnetization 
 augmentation part        0.1830305 magnetization 

 Broyden mixing:
  rms(total) = 0.24671E-02    rms(broyden)= 0.24652E-02
  rms(prec ) = 0.30858E-02
  weight for this iteration     100.00

 Free energy of the ion-electron system (eV)
  ---------------------------------------------------
  alpha Z        PSCENC =         0.23730588
  Ewald energy   TEWEN  =       127.63715266
  -Hartree energ DENC   =      -283.58100308
  -exchange      EXHF   =         0.00000000
  -V(xc)+E(xc)   XCENC  =        24.64857785
  PAW double counting   =       454.63297313     -455.41319645
  entropy T*S    EENTRO =        -0.00000000
  eigenvalues    EBANDS =       -89.21561457
  atomic energy  EATOM  =       197.04175453
  Solvation  Ediel_sol  =         0.00000000
  ---------------------------------------------------
  free energy    TOTEN  =       -24.01205004 eV

  energy without entropy =      -24.01205004  energy(sigma->0) =      -24.01205004


--------------------------------------------------------------------------------------------------------




--------------------------------------- Iteration      2(   2)  ---------------------------------------


    POTLOK:  cpu time    0.1327: real time    0.1327
    SETDIJ:  cpu time    0.0014: real time    0.0014
    EDDIAG:  cpu time    0.0334: real time    0.0334
  RMM-DIIS:  cpu time    0.1414: real time    0.1414
    ORTHCH:  cpu time    0.0016: real time    0.0016
       DOS:  cpu time    0.0002: real time    0.0002
    CHARGE:  cpu time    0.0168: real time    0.0168
    MIXING:  cpu time    0.0041: real time    0.0041
    --------------------------------------------
      LOOP:  cpu time    0.3318: real time    0.3318

 eigenvalue-minimisations  :    64
 total energy-change (2. order) : 0.8392871E-05  (-0.8196064E-05)
 number of electron       8.0000002 magnetization 
 augmentation part        0.1829985 magnetization 

 Broyden mixing:
  rms(total) = 0.13587E-02    rms(broyden)= 0.13583E-02
  rms(prec ) = 0.15991E-02
  weight for this iteration     100.00

 eigenvalues of (default mixing * dielectric matrix)
  average eigenvalue GAMMA=   1.6406
  1.6406

 Free energy of the ion-electron system (eV)
  ---------------------------------------------------
  alpha Z        PSCENC =         0.23730588
  Ewald energy   TEWEN  =       127.63715266
  -Hartree energ DENC   =      -283.61197078
  -exchange      EXHF   =         0.00000000
  -V(xc)+E(xc)   XCENC  =        24.65020718
  PAW double counting   =       454.93152768     -455.71210481
  entropy T*S    EENTRO =        -0.00000000
  eigenvalues    EBANDS =       -89.18591399
  atomic energy  EATOM  =       197.04175453
  Solvation  Ediel_sol  =         0.00000000
  ---------------------------------------------------
  free energy    TOTEN  =       -24.01204165 eV

  energy without entropy =      -24.01204165  energy(sigma->0) =      -24.01204165


--------------------------------------------------------------------------------------------------------




--------------------------------------- Iteration      2(   3)  ---------------------------------------


    POTLOK:  cpu time    0.1309: real time    0.1309
    SETDIJ:  cpu time    0.0015: real time    0.0015
    EDDIAG:  cpu time    0.0335: real time    0.0335
  RMM-DIIS:  cpu time    0.1414: real time    0.1414
    ORTHCH:  cpu time    0.0018: real time    0.0018
       DOS:  cpu time    0.0002: real time    0.0002
    CHARGE:  cpu time    0.0169: real time    0.0169
    MIXING:  cpu time    0.0042: real time    0.0042
    --------------------------------------------
      LOOP:  cpu time    0.3304: real time    0.3304

 eigenvalue-minimisations  :    64
 total energy-change (2. order) : 0.6326792E-06  (-0.1816182E-05)
 number of electron       8.0000002 magnetization 
 augmentation part        0.1829736 magnetization 

 Broyden mixing:
  rms(total) = 0.54209E-03    rms(broyden)= 0.54187E-03
  rms(prec ) = 0.61952E-03
  weight for this iteration     100.00

 eigenvalues of (default mixing * dielectric matrix)
  average eigenvalue GAMMA=   1.6403
  1.6403  1.6403

 Free energy of the ion-electron system (eV)
  ---------------------------------------------------
  alpha Z        PSCENC =         0.23730588
  Ewald energy   TEWEN  =       127.63715266
  -Hartree energ DENC   =      -283.62733887
  -exchange      EXHF   =         0.00000000
  -V(xc)+E(xc)   XCENC  =        24.65108176
  PAW double counting   =       455.23216034     -456.01292551
  entropy T*S    EENTRO =        -0.00000000
  eigenvalues    EBANDS =       -89.17123181
  atomic energy  EATOM  =       197.04175453
  Solvation  Ediel_sol  =         0.00000000
  ---------------------------------------------------
  free energy    TOTEN  =       -24.01204101 eV

  energy without entropy =      -24.01204101  energy(sigma->0) =      -24.01204101


--------------------------------------------------------------------------------------------------------




--------------------------------------- Iteration      2(   4)  ---------------------------------------


    POTLOK:  cpu time    0.1309: real time    0.1309
    SETDIJ:  cpu time    0.0015: real time    0.0015
    EDDIAG:  cpu time    0.0333: real time    0.0333
  RMM-DIIS:  cpu time    0.1148: real time    0.1149
    ORTHCH:  cpu time    0.0018: real time    0.0018
       DOS:  cpu time    0.0002: real time    0.0002
    --------------------------------------------
      LOOP:  cpu time    0.2824: real time    0.2825

 eigenvalue-minimisations  :    48
 total energy-change (2. order) :-0.6747226E-07  (-0.7471156E-07)
 number of electron       8.0000002 magnetization 
 augmentation part        0.1829736 magnetization 

 Free energy of the ion-electron system (eV)
  ---------------------------------------------------
  alpha Z        PSCENC =         0.23730588
  Ewald energy   TEWEN  =       127.63715266
  -Hartree energ DENC   =      -283.62219459
  -exchange      EXHF   =         0.00000000
  -V(xc)+E(xc)   XCENC  =        24.65091113
  PAW double counting   =       455.35819440     -456.13888886
  entropy T*S    EENTRO =        -0.00000000
  eigenvalues    EBANDS =       -89.17627623
  atomic energy  EATOM  =       197.04175453
  Solvation  Ediel_sol  =         0.00000000
  ---------------------------------------------------
  free energy    TOTEN  =       -24.01204108 eV

  energy without entropy =      -24.01204108  energy(sigma->0) =      -24.01204108


--------------------------------------------------------------------------------------------------------




 average (electrostatic) potential at core
  the test charge radii are     0.5201  0.6991
  (the norm of the test charge is              1.0000)
       1 -41.4514       2 -41.3734       3 -41.3813       4 -41.5757       5 -58.0159
 
 
 
 E-fermi :  -8.2103     XC(G=0):  -0.7010     alpha+bet : -0.2064


 k-point     1 :       0.2500    0.2500    0.2500
  band No.  band energies     occupation 
      1     -16.8236      2.00000
      2      -9.3527      2.00000
      3      -9.2193      2.00000
      4      -9.1928      2.00000
      5      -0.3308      0.00000
      6       0.5384      0.00000
      7       0.6504      0.00000
      8       0.6805      0.00000

 k-point     2 :      -0.2500    0.2500    0.2500
  band No.  band energies     occupation 
      1     -16.8236      2.00000
      2      -9.3526      2.00000
      3      -9.2192      2.00000
      4      -9.1927      2.00000
      5      -0.3327      0.00000
      6       0.5371      0.00000
      7       0.6534      0.00000
      8       0.6875      0.00000

 k-point     3 :       0.2500   -0.2500    0.2500
  band No.  band energies     occupation 
      1     -16.8236      2.00000
      2      -9.3526      2.00000
      3      -9.2192      2.00000
      4      -9.1927      2.00000
      5      -0.3271      0.00000
      6       0.5280      0.00000
      7       0.6402      0.00000
      8       0.6713      0.00000

 k-point     4 :      -0.2500   -0.2500    0.2500
  band No.  band energies     occupation 
      1     -16.8236      2.00000
      2      -9.3526      2.00000
      3      -9.2192      2.00000
      4      -9.1927      2.00000
      5      -0.3357      0.00000
      6       0.5483      0.00000
      7       0.6661      0.00000
      8       0.6898      0.00000


--------------------------------------------------------------------------------------------------------


 soft charge-density along one line, spin component           1
         0         1         2         3         4         5         6         7         8         9
 total charge-density along one line
 
 pseudopotential strength for first ion, spin component:           1
 -2.341  -4.033  -0.001  -0.001   0.001
 -4.033  -6.863  -0.003  -0.004   0.002
 -0.001  -0.003  -0.338   0.002  -0.001
 -0.001  -0.004   0.002  -0.336  -0.001
  0.001   0.002  -0.001  -0.001  -0.339
 total augmentation occupancy for first ion, spin component:           1
  3.522  -0.635   0.236   0.322  -0.138
 -0.635   0.128  -0.044  -0.060   0.025
  0.236  -0.044   0.022   0.018  -0.008
  0.322  -0.060   0.018   0.033  -0.010
 -0.138   0.025  -0.008  -0.010   0.013


------------------------ aborting loop because EDIFF is reached ----------------------------------------


    CHARGE:  cpu time    0.0167: real time    0.0167
    FORLOC:  cpu time    0.0110: real time    0.0110
    FORNL :  cpu time    0.0175: real time    0.0175
    STRESS:  cpu time    0.1391: real time    0.1391
    FORCOR:  cpu time    0.1275: real time    0.1275
    FORHAR:  cpu time    0.0411: real time    0.0411
    MIXING:  cpu time    0.0053: real time    0.0053
    OFIELD:  cpu time    0.0000: real time    0.0000

  FORCE on cell =-STRESS in cart. coord.  units (eV):
  Direction    XX          YY          ZZ          XY          YZ          ZX
  --------------------------------------------------------------------------------------
  Alpha Z     0.23731     0.23731     0.23731
  Ewald      41.70329    42.03183    43.90200     1.41686    -0.59941    -1.96110
  Hartree    93.88924    94.27038    95.46221     0.71345     0.02819    -0.91821
  E(xc)     -27.10633   -27.11218   -27.11873     0.00860    -0.00049    -0.00943
  Local    -194.63655  -195.26486  -197.95785    -2.02714     0.33600     2.66099
  n-local   -15.64755   -15.66948   -15.75924     0.02997     0.02711    -0.01375
  augment     0.12209     0.12082     0.11655    -0.00017     0.00231     0.00117
  Kinetic   100.24678   100.49973   100.91719    -0.44951     0.00406     0.46693
  Fock        0.00000     0.00000     0.00000     0.00000     0.00000     0.00000
  -------------------------------------------------------------------------------------
  Total      -1.19172    -0.88644    -0.20057    -0.30795    -0.20222     0.22660
  in kB      -1.87038    -1.39124    -0.31479    -0.48332    -0.31738     0.35564
  external pressure =       -1.19 kB  Pullay stress =        0.00 kB

  kinetic pressure (ideal gas correction) =      0.00 kB
  total pressure  =     -1.19 kB
  Total+kin.    -1.868      -1.390      -0.314      -0.483      -0.318       0.356

 VOLUME and BASIS-vectors are now :
 -----------------------------------------------------------------------------
  energy-cutoff  :      400.00
  volume of cell :     1020.84
      direct lattice vectors                 reciprocal lattice vectors
    10.154503059  0.000000000  0.000000000     0.098478477 -0.001920864  0.002819866
     0.196828822 10.090981156  0.000000000     0.000000000  0.099098391 -0.000301585
    -0.284675837  0.030318514  9.962415340     0.000000000  0.000000000  0.100377265

  length of vectors
    10.154503059 10.092900588  9.966527929     0.098537566  0.099098850  0.100377265


 FORCES acting on ions
    electron-ion (+dipol)            ewald-force                    non-local-force                 convergence-correction
 -----------------------------------------------------------------------------------------------
   -.171E+02 0.292E+02 0.400E+02   0.187E+02 -.321E+02 -.440E+02   -.177E+01 0.302E+01 0.412E+01   -.108E-03 0.268E-03 -.790E-04
   0.515E+02 -.596E+01 0.326E+01   -.561E+02 0.658E+01 -.365E+01   0.520E+01 -.563E+00 0.300E+00   -.648E-04 0.218E-03 -.153E-03
   -.240E+02 -.459E+02 0.108E+01   0.261E+02 0.500E+02 -.115E+01   -.244E+01 -.463E+01 0.115E+00   -.101E-03 0.194E-03 -.167E-03
   -.105E+02 0.251E+02 -.456E+02   0.118E+02 -.280E+02 0.508E+02   -.109E+01 0.269E+01 -.485E+01   -.155E-03 0.353E-03 -.433E-03
   0.437E+00 -.298E+01 0.166E+01   -.558E+00 0.338E+01 -.195E+01   -.151E+00 0.221E-01 -.113E+00   -.153E-03 0.393E-03 -.208E-03
 -----------------------------------------------------------------------------------------------
[...]
      5.57277      5.69088      4.41594         0.218387      0.477547      0.010708
      5.30298      4.20998      5.38388        -0.019162      0.165873     -0.262319
      5.07539      4.73142      4.43359         0.216257     -0.654925      0.452477
 -----------------------------------------------------------------------------------
    total drift:                               -0.000126      0.000337      0.000150


--------------------------------------------------------------------------------------------------------



  FREE ENERGIE OF THE ION-ELECTRON SYSTEM (eV)
  ---------------------------------------------------
  free  energy   TOTEN  =       -24.01933161 eV

  energy  without entropy=      -24.01933161  energy(sigma->0) =      -24.01933161
 
 d Force =-0.4232511E-02[-0.510E-02,-0.336E-02]  d Energy =-0.4228230E-02-0.428E-05
 d Force =-0.4814207E+00[-0.483E+00,-0.479E+00]  d Ewald  =-0.4814177E+00-0.299E-05


--------------------------------------------------------------------------------------------------------


    POTLOK:  cpu time    0.1286: real time    0.1286


--------------------------------------------------------------------------------------------------------


 stress matrix after NEB project (eV)
      0.22193      0.12987     -0.02471
      0.12987      0.05078      0.21557
     -0.02471      0.21557     -0.52188
  FORCES: max atom, RMS     0.824882    0.511557
  FORCE total and by dimension    1.143877    0.654925
  Stress total and by dimension    0.672372    0.521879
           RANDOM_SEED =         581356223               30                0
   IONSTEP:  cpu time    0.0002: real time    0.0002

  ENERGY OF THE ELECTRON-ION-THERMOSTAT SYSTEM (eV)
  ---------------------------------------------------
% ion-electron   TOTEN  =       -24.019332  see above
  kinetic energy EKIN   =         0.010009
  kin. lattice  EKIN_LAT=         0.000000  (temperature   19.36 K)
  nose potential ES     =         0.000000
  nose kinetic   EPS    =         0.000000
  ---------------------------------------------------
  total energy   ETOTAL =       -24.009323 eV

  maximum distance moved by ions :      0.40E-03

    WAVPRE:  cpu time    0.0425: real time    0.0425
    FEWALD:  cpu time    0.0003: real time    0.0003
    ORTHCH:  cpu time    0.0079: real time    0.0079
 Prediction of Wavefunctions ALPHA= 2.197 BETA=-1.235
     LOOP+:  cpu time    1.7401: real time    1.7402


--------------------------------------- Iteration     10(   1)  ---------------------------------------


    POTLOK:  cpu time    0.1256: real time    0.1256
    SETDIJ:  cpu time    0.0014: real time    0.0014
     EDDAV:  cpu time    0.1630: real time    0.1630
       DOS:  cpu time    0.0002: real time    0.0002
    CHARGE:  cpu time    0.0165: real time    0.0165
    MIXING:  cpu time    0.0040: real time    0.0040
    --------------------------------------------
      LOOP:  cpu time    0.3108: real time    0.3108

 eigenvalue-minimisations  :    80
 total energy-change (2. order) : 0.3920623E-02  (-0.3422250E-04)
 number of electron       8.0000004 magnetization 
 augmentation part        0.1874078 magnetization 

 Broyden mixing:
  rms(total) = 0.12422E-03    rms(broyden)= 0.12374E-03
  rms(prec ) = 0.15869E-03
  weight for this iteration     100.00

 Free energy of the ion-electron system (eV)
  ---------------------------------------------------
  alpha Z        PSCENC =         0.23730588
  Ewald energy   TEWEN  =       131.38169150
  -Hartree energ DENC   =      -286.91213556
  -exchange      EXHF   =         0.00000000
  -V(xc)+E(xc)   XCENC  =        24.82516808
  PAW double counting   =       478.19335632     -478.98720203
  entropy T*S    EENTRO =        -0.00000000
  eigenvalues    EBANDS =       -89.79534964
  atomic energy  EATOM  =       197.04175453
  Solvation  Ediel_sol  =         0.00000000
  ---------------------------------------------------
  free energy    TOTEN  =       -24.01541092 eV

  energy without entropy =      -24.01541092  energy(sigma->0) =      -24.01541092


--------------------------------------------------------------------------------------------------------




--------------------------------------- Iteration     10(   2)  ---------------------------------------


    POTLOK:  cpu time    0.1245: real time    0.1245
    SETDIJ:  cpu time    0.0014: real time    0.0014
    EDDIAG:  cpu time    0.0336: real time    0.0336
  RMM-DIIS:  cpu time    0.1443: real time    0.1443
    ORTHCH:  cpu time    0.0013: real time    0.0013
       DOS:  cpu time    0.0002: real time    0.0002
    CHARGE:  cpu time    0.0170: real time    0.0170
    MIXING:  cpu time    0.0041: real time    0.0041
    --------------------------------------------
      LOOP:  cpu time    0.3264: real time    0.3264

 eigenvalue-minimisations  :    64
 total energy-change (2. order) :-0.6497565E-06  (-0.4739572E-06)
 number of electron       8.0000004 magnetization 
 augmentation part        0.1874120 magnetization 

 Broyden mixing:
  rms(total) = 0.18852E-03    rms(broyden)= 0.18838E-03
  rms(prec ) = 0.19670E-03
  weight for this iteration     100.00

 eigenvalues of (default mixing * dielectric matrix)
  average eigenvalue GAMMA=   0.2512
  0.2512

 Free energy of the ion-electron system (eV)
  ---------------------------------------------------
  alpha Z        PSCENC =         0.23730588
  Ewald energy   TEWEN  =       131.38169150
  -Hartree energ DENC   =      -286.91369511
  -exchange      EXHF   =         0.00000000
  -V(xc)+E(xc)   XCENC  =        24.82523132
  PAW double counting   =       478.18598766     -478.97983697
  entropy T*S    EENTRO =        -0.00000000
  eigenvalues    EBANDS =       -89.79385037
  atomic energy  EATOM  =       197.04175453
  Solvation  Ediel_sol  =         0.00000000
  ---------------------------------------------------
  free energy    TOTEN  =       -24.01541157 eV

  energy without entropy =      -24.01541157  energy(sigma->0) =      -24.01541157


--------------------------------------------------------------------------------------------------------




--------------------------------------- Iteration     10(   3)  ---------------------------------------


    POTLOK:  cpu time    0.1255: real time    0.1255
    SETDIJ:  cpu time    0.0014: real time    0.0014
    EDDIAG:  cpu time    0.0337: real time    0.0337
  RMM-DIIS:  cpu time    0.1135: real time    0.1135
    ORTHCH:  cpu time    0.0014: real time    0.0014
       DOS:  cpu time    0.0002: real time    0.0002
    CHARGE:  cpu time    0.0170: real time    0.0170
    MIXING:  cpu time    0.0043: real time    0.0043
    --------------------------------------------
      LOOP:  cpu time    0.2969: real time    0.2969

 eigenvalue-minimisations  :    45
 total energy-change (2. order) :-0.4223637E-08  (-0.8449563E-08)
 number of electron       8.0000004 magnetization 
 augmentation part        0.1874120 magnetization 

 Broyden mixing:
  rms(total) = 0.16797E-03    rms(broyden)= 0.16796E-03
  rms(prec ) = 0.17534E-03
  weight for this iteration     100.00

 eigenvalues of (default mixing * dielectric matrix)
  average eigenvalue GAMMA=   1.6953
  1.1992  2.1914

 Free energy of the ion-electron system (eV)
  ---------------------------------------------------
  alpha Z        PSCENC =         0.23730588
  Ewald energy   TEWEN  =       131.38169150
  -Hartree energ DENC   =      -286.91378197
  -exchange      EXHF   =         0.00000000
  -V(xc)+E(xc)   XCENC  =        24.82523763
  PAW double counting   =       478.16520207     -478.95905467
  entropy T*S    EENTRO =        -0.00000000
  eigenvalues    EBANDS =       -89.79376654
  atomic energy  EATOM  =       197.04175453
  Solvation  Ediel_sol  =         0.00000000
  ---------------------------------------------------
  free energy    TOTEN  =       -24.01541157 eV

  energy without entropy =      -24.01541157  energy(sigma->0) =      -24.01541157


--------------------------------------------------------------------------------------------------------




--------------------------------------- Iteration     10(   4)  ---------------------------------------


    POTLOK:  cpu time    0.1263: real time    0.1263
    SETDIJ:  cpu time    0.0014: real time    0.0014
    EDDIAG:  cpu time    0.0337: real time    0.0337
  RMM-DIIS:  cpu time    0.1105: real time    0.1105
    ORTHCH:  cpu time    0.0015: real time    0.0015
       DOS:  cpu time    0.0002: real time    0.0002
    --------------------------------------------
      LOOP:  cpu time    0.2735: real time    0.2736

 eigenvalue-minimisations  :    39
 total energy-change (2. order) :-0.5041373E-06  (-0.1782432E-08)
 number of electron       8.0000004 magnetization 
 augmentation part        0.1874120 magnetization 

 Free energy of the ion-electron system (eV)
  ---------------------------------------------------
  alpha Z        PSCENC =         0.23730588
  Ewald energy   TEWEN  =       131.38169150
  -Hartree energ DENC   =      -286.91387332
  -exchange      EXHF   =         0.00000000
  -V(xc)+E(xc)   XCENC  =        24.82525756
  PAW double counting   =       478.03777952     -478.83164709
  entropy T*S    EENTRO =        -0.00000000
  eigenvalues    EBANDS =       -89.79368065
  atomic energy  EATOM  =       197.04175453
  Solvation  Ediel_sol  =         0.00000000
  ---------------------------------------------------
  free energy    TOTEN  =       -24.01541208 eV

  energy without entropy =      -24.01541208  energy(sigma->0) =      -24.01541208


--------------------------------------------------------------------------------------------------------




 average (electrostatic) potential at core
  the test charge radii are     0.5201  0.6991
  (the norm of the test charge is              1.0000)
       1 -41.5280       2 -41.6222       3 -41.6466       4 -41.3834       5 -57.9184
 
 
 
 E-fermi :  -8.2621     XC(G=0):  -0.6740     alpha+bet : -0.2064


 k-point     1 :       0.2500    0.2500    0.2500
  band No.  band energies     occupation 
      1     -16.9432      2.00000
      2      -9.4022      2.00000
      3      -9.3276      2.00000
      4      -9.2239      2.00000
      5      -0.3033      0.00000
      6       0.5685      0.00000
      7       0.6673      0.00000
      8       0.7008      0.00000

 k-point     2 :      -0.2500    0.2500    0.2500
  band No.  band energies     occupation 
      1     -16.9432      2.00000
      2      -9.4022      2.00000
      3      -9.3275      2.00000
      4      -9.2239      2.00000
      5      -0.3051      0.00000
      6       0.5653      0.00000
      7       0.6739      0.00000
      8       0.7051      0.00000

 k-point     3 :       0.2500   -0.2500    0.2500
  band No.  band energies     occupation 
      1     -16.9433      2.00000
      2      -9.4021      2.00000
      3      -9.3276      2.00000
      4      -9.2239      2.00000
      5      -0.2987      0.00000
      6       0.5509      0.00000
      7       0.6621      0.00000
      8       0.6891      0.00000

 k-point     4 :      -0.2500   -0.2500    0.2500
  band No.  band energies     occupation 
      1     -16.9432      2.00000
      2      -9.4021      2.00000
      3      -9.3275      2.00000
      4      -9.2239      2.00000
      5      -0.3080      0.00000
      6       0.5787      0.00000
      7       0.6828      0.00000
      8       0.7077      0.00000


--------------------------------------------------------------------------------------------------------


 soft charge-density along one line, spin component           1
         0         1         2         3         4         5         6         7         8         9
 total charge-density along one line
 
 pseudopotential strength for first ion, spin component:           1
 -2.341  -4.034  -0.001  -0.001   0.001
 -4.034  -6.866  -0.003  -0.004   0.002
 -0.001  -0.003  -0.337   0.002  -0.001
 -0.001  -0.004   0.002  -0.336  -0.001
  0.001   0.002  -0.001  -0.001  -0.338
 total augmentation occupancy for first ion, spin component:           1
  3.567  -0.641   0.244   0.334  -0.141
 -0.641   0.130  -0.045  -0.062   0.026
  0.244  -0.045   0.023   0.019  -0.008
  0.334  -0.062   0.019   0.035  -0.011
 -0.141   0.026  -0.008  -0.011   0.014


------------------------ aborting loop because EDIFF is reached ----------------------------------------


    CHARGE:  cpu time    0.0167: real time    0.0167
    FORLOC:  cpu time    0.0110: real time    0.0110
    FORNL :  cpu time    0.0174: real time    0.0174
    STRESS:  cpu time    0.1398: real time    0.1398
    FORCOR:  cpu time    0.1285: real time    0.1285
    FORHAR:  cpu time    0.0416: real time    0.0416
    MIXING:  cpu time    0.0047: real time    0.0047
    OFIELD:  cpu time    0.0000: real time    0.0000

  FORCE on cell =-STRESS in cart. coord.  units (eV):
  Direction    XX          YY          ZZ          XY          YZ          ZX
  --------------------------------------------------------------------------------------
  Alpha Z     0.23731     0.23731     0.23731
  Ewald      43.51524    43.86436    44.00205     1.04964     0.40393    -0.97774
  Hartree    94.54757    95.31936    97.04694     0.33270    -0.03449    -0.52095
  E(xc)     -27.30236   -27.30145   -27.29933     0.00105    -0.00161    -0.00157
  Local    -196.36910  -197.67917  -200.21140    -1.12839    -0.17495     1.35921
  n-local   -16.12500   -16.09908   -16.03315    -0.01802    -0.02508     0.00838
  augment     0.10827     0.11045     0.11734    -0.00245    -0.00203     0.00121
  Kinetic   101.75517   101.69619   101.60162    -0.05806     0.08120     0.07546
  Fock        0.00000     0.00000     0.00000     0.00000     0.00000     0.00000
  -------------------------------------------------------------------------------------
  Total       0.36709     0.14797    -0.53862     0.17647     0.24697    -0.05599
  in kB       0.57614     0.23223    -0.84536     0.27697     0.38761    -0.08788
  external pressure =       -0.01 kB  Pullay stress =        0.00 kB

  kinetic pressure (ideal gas correction) =      0.01 kB
  total pressure  =     -0.00 kB
  Total+kin.     0.592       0.238      -0.842       0.285       0.385      -0.091

 VOLUME and BASIS-vectors are now :
 -----------------------------------------------------------------------------
  energy-cutoff  :      400.00
  volume of cell :     1020.84
      direct lattice vectors                 reciprocal lattice vectors
    10.154503059  0.000000000  0.000000000     0.098478477 -0.001920864  0.002819866
     0.196828822 10.090981156  0.000000000     0.000000000  0.099098391 -0.000301585
    -0.284675837  0.030318514  9.962415340     0.000000000  0.000000000  0.100377265

  length of vectors
    10.154503059 10.092900588  9.966527929     0.098537566  0.099098850  0.100377265


 FORCES acting on ions
    electron-ion (+dipol)            ewald-force                    non-local-force                 convergence-correction
 -----------------------------------------------------------------------------------------------
   -.172E+02 0.297E+02 0.407E+02   0.191E+02 -.329E+02 -.451E+02   -.181E+01 0.312E+01 0.426E+01   0.132E-04 -.275E-04 -.471E-05
   0.532E+02 -.662E+01 0.380E+01   -.595E+02 0.741E+01 -.425E+01   0.570E+01 -.692E+00 0.396E+00   -.232E-04 -.846E-05 0.607E-05
   -.247E+02 -.478E+02 0.855E+00   0.276E+02 0.535E+02 -.942E+00   -.266E+01 -.514E+01 0.914E-01   0.115E-04 0.102E-04 0.131E-04
   -.109E+02 0.246E+02 -.450E+02   0.119E+02 -.269E+02 0.492E+02   -.109E+01 0.250E+01 -.455E+01   0.116E-04 -.274E-04 0.335E-04
   -.623E+00 0.722E+00 -.794E+00   0.771E+00 -.104E+01 0.104E+01   0.118E+00 -.422E+00 0.276E+00   0.411E-05 -.244E-04 0.588E-04
 -----------------------------------------------------------------------------------------------
   -.253E+00 0.635E+00 -.468E+00   -.178E-14 0.000E+00 0.711E-14   0.253E+00 -.635E+00 0.468E+00   0.172E-04 -.775E-04 0.107E-03
 
 
 POSITION                                       TOTAL-FORCE (eV/Angst)
 -----------------------------------------------------------------------------------
      5.42811      4.12197      3.60034         0.064786     -0.113379     -0.157924
      4.00627      4.86311      4.35781        -0.569500      0.100742     -0.062073
      5.56998      5.68860      4.41665         0.283145      0.576448      0.003739
      5.30508      4.21023      5.38520        -0.043763      0.181336     -0.302864
      5.07526      4.73137      4.43353         0.265579     -0.744959      0.519280
 -----------------------------------------------------------------------------------
    total drift:                                0.000247      0.000188      0.000159


--------------------------------------------------------------------------------------------------------



  FREE ENERGIE OF THE ION-ELECTRON SYSTEM (eV)
  ---------------------------------------------------
  free  energy   TOTEN  =       -24.01541208 eV

  energy  without entropy=      -24.01541208  energy(sigma->0) =      -24.01541208
 
 d Force =-0.3921486E-02[-0.439E-02,-0.345E-02]  d Energy =-0.3919535E-02-0.195E-05
 d Force =-0.3591680E+00[-0.360E+00,-0.358E+00]  d Ewald  =-0.3591674E+00-0.568E-06


--------------------------------------------------------------------------------------------------------


    POTLOK:  cpu time    0.1286: real time    0.1286


--------------------------------------------------------------------------------------------------------


 stress matrix after NEB project (eV)
      0.36709      0.17647     -0.05599
      0.17647      0.14797      0.24697
     -0.05599      0.24697     -0.53862
  FORCES: max atom, RMS     0.946123    0.602408
  FORCE total and by dimension    1.347024    0.744959
  Stress total and by dimension    0.798313    0.538624
           RANDOM_SEED =         581356223               30                0
   IONSTEP:  cpu time    0.0001: real time    0.0001

  ENERGY OF THE ELECTRON-ION-THERMOSTAT SYSTEM (eV)
  ---------------------------------------------------
% ion-electron   TOTEN  =       -24.015412  see above
  kinetic energy EKIN   =         0.006180
  kin. lattice  EKIN_LAT=         0.000000  (temperature   11.95 K)
  nose potential ES     =         0.000000
  nose kinetic   EPS    =         0.000000
  ---------------------------------------------------
  total energy   ETOTAL =       -24.009232 eV

  maximum distance moved by ions :      0.33E-03


 mean value of Nose-termostat <S>:     1.000 mean value of <T> :    19.964
 mean temperature <T/S>/<1/S>  :    19.964

    WAVPRE:  cpu time    0.0463: real time    0.0463
    FEWALD:  cpu time    0.0003: real time    0.0003
    ORTHCH:  cpu time    0.0080: real time    0.0080
 Prediction of Wavefunctions ALPHA= 2.119 BETA=-1.147
    POTLOK:  cpu time    0.1276: real time    0.1276
    EDDIAG:  cpu time    0.0345: real time    0.0345
     LOOP+:  cpu time    1.9169: real time    1.9170
    4ORBIT:  cpu time    0.0000: real time    0.0011

 total amount of memory used by VASP MPI-rank0    56632. kBytes
=======================================================================

   base      :      30000. kBytes
   nonl-proj :       2742. kBytes
   fftplans  :       8575. kBytes
   grid      :      13527. kBytes
   one-center:          6. kBytes
   wavefun   :       1782. kBytes
 
  
  
 General timing and accounting informations for this job:
 ========================================================
  
                  Total CPU time used (sec):       25.311
                            User time (sec):       23.837
                          System time (sec):        1.474
                         Elapsed time (sec):       25.976
  
                   Maximum memory used (kb):      175788.
                   Average memory used (kb):           0.
  
                          Minor page faults:       252897
                          Major page faults:          149
                 Voluntary context switches:          543
