unknown system                          
           1
     9.900849    0.000000    0.000000
    -0.101388   10.195250    0.000000
    -0.234617    0.058315    9.884017
   H    C 
   4   1
Direct configuration=     1
   0.53827409  0.40667534  0.36073083
   0.39484085  0.48016357  0.43818953
   0.55210565  0.56536834  0.44261455
   0.52745313  0.41698958  0.53921243
   0.50335521  0.46725099  0.44534000
Direct configuration=     2
   0.53823935  0.40673585  0.36077119
   0.39473391  0.48016027  0.43815489
   0.55210021  0.56528619  0.44262276
   0.52750693  0.41695074  0.53934172
   0.50336298  0.46725630  0.44532808
Direct configuration=     3
   0.53817160  0.40685275  0.36084734
   0.39452898  0.48015320  0.43808647
   0.55209106  0.56512821  0.44263944
   0.52761039  0.41687829  0.53958880
   0.50337783  0.46726634  0.44530548
Direct configuration=     4
   0.53807506  0.40701844  0.36095086
   0.39424377  0.48014071  0.43798695
   0.55208239  0.56490583  0.44266424
   0.52775701  0.41678226  0.53993272
   0.50339813  0.46728010  0.44527445
Direct configuration=     5
   0.53795548  0.40722253  0.36107034
   0.39390299  0.48012057  0.43786013
   0.55207987  0.56463470  0.44269669
   0.52793773  0.41667627  0.54034465
   0.50342162  0.46729618  0.44523806
Direct configuration=     6
   0.53782014  0.40745190  0.36119147
   0.39353504  0.48009041  0.43771063
   0.55209051  0.56433449  0.44273616
   0.52814201  0.41657566  0.54079147
   0.50344563  0.46731297  0.44519993
Direct configuration=     7
   0.53767713  0.40769202  0.36129866
   0.39316993  0.48004798  0.43754362
   0.55212185  0.56402688  0.44278190
   0.52835865  0.41649608  0.54123847
   0.50346729  0.46732874  0.44516389
Direct configuration=     8
   0.53753469  0.40792824  0.36137663
   0.39283694  0.47999146  0.43736449
   0.55218103  0.56373360  0.44283304
   0.52857655  0.41645207  0.54165205
   0.50348380  0.46734186  0.44513362
Direct configuration=     9
   0.53740065  0.40814679  0.36141164
   0.39256199  0.47991973  0.43717861
   0.55227410  0.56347482  0.44288862
   0.52878557  0.41645567  0.54200250
   0.50349270  0.46735088  0.44511238
Direct configuration=    10
   0.53728180  0.40833604  0.36139300
   0.39236594  0.47983255  0.43699107
   0.55240523  0.56326730  0.44294751
   0.52897710  0.41651550  0.54226592
   0.50349206  0.46735468  0.44510271
