    5    5   10    1
  0.2084776E+03  0.1023329E-08  0.1007330E-08  0.1011362E-08  0.5000000E-15
  1.000000000000000E-004
  CAR 
 unknown system                          
      8      4      8
 
  0.2500000E+00  0.2500000E+00  0.2500000E+00  0.2500000E+00
    1      -17.008936   1.000000
    2       -9.376875   1.000000
    3       -9.346699   1.000000
    4       -9.335679   1.000000
    5       -0.291806   0.000000
    6        0.581059   0.000000
    7        0.680803   0.000000
    8        0.709905   0.000000
 
 -0.2500000E+00  0.2500000E+00  0.2500000E+00  0.2500000E+00
    1      -17.008991   1.000000
    2       -9.376912   1.000000
    3       -9.346690   1.000000
    4       -9.335746   1.000000
    5       -0.290265   0.000000
    6        0.573095   0.000000
    7        0.675408   0.000000
    8        0.707996   0.000000
 
  0.2500000E+00 -0.2500000E+00  0.2500000E+00  0.2500000E+00
    1      -17.009001   1.000000
    2       -9.376924   1.000000
    3       -9.346733   1.000000
    4       -9.335778   1.000000
    5       -0.288692   0.000000
    6        0.571519   0.000000
    7        0.674360   0.000000
    8        0.700566   0.000000
 
 -0.2500000E+00 -0.2500000E+00  0.2500000E+00  0.2500000E+00
    1      -17.008968   1.000000
    2       -9.376959   1.000000
    3       -9.346707   1.000000
    4       -9.335755   1.000000
    5       -0.287658   0.000000
    6        0.572230   0.000000
    7        0.672537   0.000000
    8        0.697068   0.000000
