   5   5   0   0
  0.1958727E+03  0.9922518E-09  0.9870189E-09  0.1000578E-08  0.5000000E-15
  1.000000000000000E-004
  CAR 
 unknown system                          
      2.72283365    -18.82354552  301     -8.19392832      1.00000000
    -18.824  0.0000E+00  0.0000E+00
    -18.752  0.0000E+00  0.0000E+00
    -18.680  0.0000E+00  0.0000E+00
    -18.608  0.0000E+00  0.0000E+00
    -18.536  0.0000E+00  0.0000E+00
    -18.464  0.0000E+00  0.0000E+00
    -18.393  0.0000E+00  0.0000E+00
    -18.321  0.0000E+00  0.0000E+00
    -18.249  0.0000E+00  0.0000E+00
    -18.177  0.0000E+00  0.0000E+00
    -18.105  0.0000E+00  0.0000E+00
    -18.034  0.0000E+00  0.0000E+00
    -17.962  0.1371E-13  0.9881E-15
    -17.890  0.7487E-12  0.5494E-13
    -17.818  0.3227E-10  0.2380E-11
    -17.746  0.1076E-08  0.7993E-10
    -17.674  0.2778E-07  0.2082E-08
    -17.603  0.5552E-06  0.4208E-07
    -17.531  0.8590E-05  0.6610E-06
    -17.459  0.1029E-03  0.8079E-05
    -17.387  0.9558E-03  0.7694E-04
    -17.315  0.6876E-02  0.5724E-03
    -17.243  0.3834E-01  0.3335E-02
    -17.172  0.1658E+00  0.1528E-01
    -17.100  0.5556E+00  0.5531E-01
    -17.028  0.1444E+01  0.1594E+00
    -16.956  0.2913E+01  0.3692E+00
    -16.884  0.4556E+01  0.6975E+00
    -16.813  0.5530E+01  0.1096E+01
    -16.741  0.5208E+01  0.1471E+01
    -16.669  0.3806E+01  0.1745E+01
    -16.597  0.2158E+01  0.1901E+01
    -16.525  0.9494E+00  0.1969E+01
    -16.453  0.3241E+00  0.1992E+01
    -16.382  0.8583E-01  0.1998E+01
    -16.310  0.1763E-01  0.2000E+01
    -16.238  0.2810E-02  0.2000E+01
    -16.166  0.3473E-03  0.2000E+01
    -16.094  0.3329E-04  0.2000E+01
    -16.023  0.2473E-05  0.2000E+01
    -15.951  0.1425E-06  0.2000E+01
    -15.879  0.6361E-08  0.2000E+01
    -15.807  0.2201E-09  0.2000E+01
    -15.735  0.5902E-11  0.2000E+01
    -15.663  0.1238E-12  0.2000E+01
    -15.592  0.1236E-14  0.2000E+01
    -15.520  0.0000E+00  0.2000E+01
    -15.448  0.0000E+00  0.2000E+01
    -15.376  0.0000E+00  0.2000E+01
    -15.304  0.0000E+00  0.2000E+01
    -15.232  0.0000E+00  0.2000E+01
    -15.161  0.0000E+00  0.2000E+01
    -15.089  0.0000E+00  0.2000E+01
    -15.017  0.0000E+00  0.2000E+01
    -14.945  0.0000E+00  0.2000E+01
    -14.873  0.0000E+00  0.2000E+01
    -14.802  0.0000E+00  0.2000E+01
    -14.730  0.0000E+00  0.2000E+01
    -14.658  0.0000E+00  0.2000E+01
    -14.586  0.0000E+00  0.2000E+01
    -14.514  0.0000E+00  0.2000E+01
    -14.442  0.0000E+00  0.2000E+01
    -14.371  0.0000E+00  0.2000E+01
    -14.299  0.0000E+00  0.2000E+01
    -14.227  0.0000E+00  0.2000E+01
    -14.155  0.0000E+00  0.2000E+01
    -14.083  0.0000E+00  0.2000E+01
    -14.012  0.0000E+00  0.2000E+01
    -13.940  0.0000E+00  0.2000E+01
    -13.868  0.0000E+00  0.2000E+01
    -13.796  0.0000E+00  0.2000E+01
    -13.724  0.0000E+00  0.2000E+01
    -13.652  0.0000E+00  0.2000E+01
    -13.581  0.0000E+00  0.2000E+01
    -13.509  0.0000E+00  0.2000E+01
    -13.437  0.0000E+00  0.2000E+01
    -13.365  0.0000E+00  0.2000E+01
    -13.293  0.0000E+00  0.2000E+01
    -13.221  0.0000E+00  0.2000E+01
    -13.150  0.0000E+00  0.2000E+01
    -13.078  0.0000E+00  0.2000E+01
    -13.006  0.0000E+00  0.2000E+01
    -12.934  0.0000E+00  0.2000E+01
    -12.862  0.0000E+00  0.2000E+01
    -12.791  0.0000E+00  0.2000E+01
    -12.719  0.0000E+00  0.2000E+01
    -12.647  0.0000E+00  0.2000E+01
    -12.575  0.0000E+00  0.2000E+01
    -12.503  0.0000E+00  0.2000E+01
    -12.431  0.0000E+00  0.2000E+01
    -12.360  0.0000E+00  0.2000E+01
    -12.288  0.0000E+00  0.2000E+01
    -12.216  0.0000E+00  0.2000E+01
    -12.144  0.0000E+00  0.2000E+01
    -12.072  0.0000E+00  0.2000E+01
    -12.001  0.0000E+00  0.2000E+01
    -11.929  0.0000E+00  0.2000E+01
    -11.857  0.0000E+00  0.2000E+01
    -11.785  0.0000E+00  0.2000E+01
    -11.713  0.0000E+00  0.2000E+01
    -11.641  0.0000E+00  0.2000E+01
    -11.570  0.0000E+00  0.2000E+01
    -11.498  0.0000E+00  0.2000E+01
    -11.426  0.0000E+00  0.2000E+01
    -11.354  0.0000E+00  0.2000E+01
    -11.282  0.0000E+00  0.2000E+01
    -11.210  0.0000E+00  0.2000E+01
    -11.139  0.0000E+00  0.2000E+01
    -11.067  0.0000E+00  0.2000E+01
    -10.995  0.0000E+00  0.2000E+01
    -10.923  0.0000E+00  0.2000E+01
    -10.851  0.0000E+00  0.2000E+01
    -10.780  0.0000E+00  0.2000E+01
    -10.708  0.0000E+00  0.2000E+01
    -10.636  0.0000E+00  0.2000E+01
    -10.564  0.0000E+00  0.2000E+01
    -10.492  0.3694E-14  0.2000E+01
    -10.420  0.2144E-12  0.2000E+01
    -10.349  0.9872E-11  0.2000E+01
    -10.277  0.3522E-09  0.2000E+01
    -10.205  0.9765E-08  0.2000E+01
    -10.133  0.2106E-06  0.2000E+01
    -10.061  0.3537E-05  0.2000E+01
     -9.990  0.4632E-04  0.2000E+01
     -9.918  0.4738E-03  0.2000E+01
     -9.846  0.3794E-02  0.2000E+01
     -9.774  0.2383E-01  0.2002E+01
     -9.702  0.1178E+00  0.2011E+01
     -9.630  0.4597E+00  0.2044E+01
     -9.559  0.1423E+01  0.2146E+01
     -9.487  0.3510E+01  0.2399E+01
     -9.415  0.6940E+01  0.2899E+01
     -9.343  0.1106E+02  0.3696E+01
     -9.271  0.1430E+02  0.4726E+01
     -9.199  0.1504E+02  0.5810E+01
     -9.128  0.1289E+02  0.6738E+01
     -9.056  0.8985E+01  0.7386E+01
     -8.984  0.5073E+01  0.7751E+01
     -8.912  0.2306E+01  0.7917E+01
     -8.840  0.8387E+00  0.7978E+01
     -8.769  0.2424E+00  0.7995E+01
     -8.697  0.5540E-01  0.7999E+01
     -8.625  0.9961E-02  0.8000E+01
     -8.553  0.1404E-02  0.8000E+01
     -8.481  0.1547E-03  0.8000E+01
     -8.409  0.1330E-04  0.8000E+01
     -8.338  0.8900E-06  0.8000E+01
     -8.266  0.4631E-07  0.8000E+01
     -8.194  0.1872E-08  0.8000E+01
     -8.122  0.5871E-10  0.8000E+01
     -8.050  0.1428E-11  0.8000E+01
     -7.979  0.2695E-13  0.8000E+01
     -7.907  0.0000E+00  0.8000E+01
     -7.835  0.0000E+00  0.8000E+01
     -7.763  0.0000E+00  0.8000E+01
     -7.691  0.0000E+00  0.8000E+01
     -7.619  0.0000E+00  0.8000E+01
     -7.548  0.0000E+00  0.8000E+01
     -7.476  0.0000E+00  0.8000E+01
     -7.404  0.0000E+00  0.8000E+01
     -7.332  0.0000E+00  0.8000E+01
     -7.260  0.0000E+00  0.8000E+01
     -7.189  0.0000E+00  0.8000E+01
     -7.117  0.0000E+00  0.8000E+01
     -7.045  0.0000E+00  0.8000E+01
     -6.973  0.0000E+00  0.8000E+01
     -6.901  0.0000E+00  0.8000E+01
     -6.829  0.0000E+00  0.8000E+01
     -6.758  0.0000E+00  0.8000E+01
     -6.686  0.0000E+00  0.8000E+01
     -6.614  0.0000E+00  0.8000E+01
     -6.542  0.0000E+00  0.8000E+01
     -6.470  0.0000E+00  0.8000E+01
     -6.398  0.0000E+00  0.8000E+01
     -6.327  0.0000E+00  0.8000E+01
     -6.255  0.0000E+00  0.8000E+01
     -6.183  0.0000E+00  0.8000E+01
     -6.111  0.0000E+00  0.8000E+01
     -6.039  0.0000E+00  0.8000E+01
     -5.968  0.0000E+00  0.8000E+01
     -5.896  0.0000E+00  0.8000E+01
     -5.824  0.0000E+00  0.8000E+01
     -5.752  0.0000E+00  0.8000E+01
     -5.680  0.0000E+00  0.8000E+01
     -5.608  0.0000E+00  0.8000E+01
     -5.537  0.0000E+00  0.8000E+01
     -5.465  0.0000E+00  0.8000E+01
     -5.393  0.0000E+00  0.8000E+01
     -5.321  0.0000E+00  0.8000E+01
     -5.249  0.0000E+00  0.8000E+01
     -5.178  0.0000E+00  0.8000E+01
     -5.106  0.0000E+00  0.8000E+01
     -5.034  0.0000E+00  0.8000E+01
     -4.962  0.0000E+00  0.8000E+01
     -4.890  0.0000E+00  0.8000E+01
     -4.818  0.0000E+00  0.8000E+01
     -4.747  0.0000E+00  0.8000E+01
     -4.675  0.0000E+00  0.8000E+01
     -4.603  0.0000E+00  0.8000E+01
     -4.531  0.0000E+00  0.8000E+01
     -4.459  0.0000E+00  0.8000E+01
     -4.387  0.0000E+00  0.8000E+01
     -4.316  0.0000E+00  0.8000E+01
     -4.244  0.0000E+00  0.8000E+01
     -4.172  0.0000E+00  0.8000E+01
     -4.100  0.0000E+00  0.8000E+01
     -4.028  0.0000E+00  0.8000E+01
     -3.957  0.0000E+00  0.8000E+01
     -3.885  0.0000E+00  0.8000E+01
     -3.813  0.0000E+00  0.8000E+01
     -3.741  0.0000E+00  0.8000E+01
     -3.669  0.0000E+00  0.8000E+01
     -3.597  0.0000E+00  0.8000E+01
     -3.526  0.0000E+00  0.8000E+01
     -3.454  0.0000E+00  0.8000E+01
     -3.382  0.0000E+00  0.8000E+01
     -3.310  0.0000E+00  0.8000E+01
     -3.238  0.0000E+00  0.8000E+01
     -3.167  0.0000E+00  0.8000E+01
     -3.095  0.0000E+00  0.8000E+01
     -3.023  0.0000E+00  0.8000E+01
     -2.951  0.0000E+00  0.8000E+01
     -2.879  0.0000E+00  0.8000E+01
     -2.807  0.0000E+00  0.8000E+01
     -2.736  0.0000E+00  0.8000E+01
     -2.664  0.0000E+00  0.8000E+01
     -2.592  0.0000E+00  0.8000E+01
     -2.520  0.0000E+00  0.8000E+01
     -2.448  0.0000E+00  0.8000E+01
     -2.376  0.0000E+00  0.8000E+01
     -2.305  0.0000E+00  0.8000E+01
     -2.233  0.0000E+00  0.8000E+01
     -2.161  0.0000E+00  0.8000E+01
     -2.089  0.0000E+00  0.8000E+01
     -2.017  0.0000E+00  0.8000E+01
     -1.946  0.0000E+00  0.8000E+01
     -1.874  0.0000E+00  0.8000E+01
     -1.802  0.0000E+00  0.8000E+01
     -1.730  0.0000E+00  0.8000E+01
     -1.658  0.0000E+00  0.8000E+01
     -1.586  0.0000E+00  0.8000E+01
     -1.515  0.0000E+00  0.8000E+01
     -1.443  0.1362E-13  0.8000E+01
     -1.371  0.7318E-12  0.8000E+01
     -1.299  0.3094E-10  0.8000E+01
     -1.227  0.1015E-08  0.8000E+01
     -1.156  0.2587E-07  0.8000E+01
     -1.084  0.5120E-06  0.8000E+01
     -1.012  0.7869E-05  0.8000E+01
     -0.940  0.9396E-04  0.8000E+01
     -0.868  0.8717E-03  0.8000E+01
     -0.796  0.6284E-02  0.8001E+01
     -0.725  0.3520E-01  0.8003E+01
     -0.653  0.1533E+00  0.8014E+01
     -0.581  0.5188E+00  0.8051E+01
     -0.509  0.1365E+01  0.8150E+01
     -0.437  0.2791E+01  0.8351E+01
     -0.365  0.4436E+01  0.8670E+01
     -0.294  0.5481E+01  0.9065E+01
     -0.222  0.5263E+01  0.9444E+01
     -0.150  0.3928E+01  0.9727E+01
     -0.078  0.2278E+01  0.9891E+01
     -0.006  0.1026E+01  0.9965E+01
      0.065  0.3626E+00  0.9992E+01
      0.137  0.1202E+00  0.1000E+02
      0.209  0.1320E+00  0.1001E+02
      0.281  0.4368E+00  0.1004E+02
      0.353  0.1343E+01  0.1014E+02
      0.425  0.3336E+01  0.1038E+02
      0.496  0.6686E+01  0.1086E+02
      0.568  0.1086E+02  0.1164E+02
      0.640  0.1434E+02  0.1268E+02
      0.712  0.1535E+02  0.1378E+02
      0.784  0.1327E+02  0.1474E+02
      0.855  0.9198E+01  0.1540E+02
      0.927  0.5084E+01  0.1577E+02
      0.999  0.2226E+01  0.1593E+02
      1.071  0.7683E+00  0.1598E+02
      1.143  0.2083E+00  0.1600E+02
      1.215  0.4419E-01  0.1600E+02
      1.286  0.7328E-02  0.1600E+02
      1.358  0.9476E-03  0.1600E+02
      1.430  0.9548E-04  0.1600E+02
      1.502  0.7488E-05  0.1600E+02
      1.574  0.4567E-06  0.1600E+02
      1.646  0.2165E-07  0.1600E+02
      1.717  0.7971E-09  0.1600E+02
      1.789  0.2279E-10  0.1600E+02
      1.861  0.5061E-12  0.1600E+02
      1.933  0.7857E-14  0.1600E+02
      2.005  0.0000E+00  0.1600E+02
      2.076  0.0000E+00  0.1600E+02
      2.148  0.0000E+00  0.1600E+02
      2.220  0.0000E+00  0.1600E+02
      2.292  0.0000E+00  0.1600E+02
      2.364  0.0000E+00  0.1600E+02
      2.436  0.0000E+00  0.1600E+02
      2.507  0.0000E+00  0.1600E+02
      2.579  0.0000E+00  0.1600E+02
      2.651  0.0000E+00  0.1600E+02
      2.723  0.0000E+00  0.1600E+02
      2.71454947    -18.81757046  301     -8.19498787      1.00000000
    -18.818  0.0000E+00  0.0000E+00
    -18.746  0.0000E+00  0.0000E+00
    -18.674  0.0000E+00  0.0000E+00
    -18.602  0.0000E+00  0.0000E+00
    -18.530  0.0000E+00  0.0000E+00
    -18.459  0.0000E+00  0.0000E+00
    -18.387  0.0000E+00  0.0000E+00
    -18.315  0.0000E+00  0.0000E+00
    -18.243  0.0000E+00  0.0000E+00
    -18.172  0.0000E+00  0.0000E+00
    -18.100  0.0000E+00  0.0000E+00
    -18.028  0.0000E+00  0.0000E+00
    -17.956  0.1083E-14  0.7772E-16
    -17.885  0.6207E-13  0.4532E-14
    -17.813  0.2670E-11  0.1962E-12
    -17.741  0.8912E-10  0.6593E-11
    -17.669  0.2307E-08  0.1721E-09
    -17.597  0.4631E-07  0.3496E-08
    -17.526  0.7212E-06  0.5526E-07
    -17.454  0.8717E-05  0.6809E-06
    -17.382  0.8178E-04  0.6550E-05
    -17.310  0.5956E-03  0.4930E-04
    -17.239  0.3368E-02  0.2911E-03
    -17.167  0.1480E-01  0.1353E-02
    -17.095  0.5048E-01  0.4976E-02
    -17.023  0.1338E+00  0.1458E-01
    -16.951  0.2757E+00  0.3437E-01
    -16.880  0.4412E+00  0.6603E-01
    -16.808  0.5489E+00  0.1054E+00
    -16.736  0.5306E+00  0.1435E+00
    -16.664  0.3987E+00  0.1721E+00
    -16.593  0.2328E+00  0.1888E+00
    -16.521  0.1056E+00  0.1964E+00
    -16.449  0.3723E-01  0.1991E+00
    -16.377  0.1020E-01  0.1998E+00
    -16.305  0.2169E-02  0.2000E+00
    -16.234  0.3584E-03  0.2000E+00
    -16.162  0.4598E-04  0.2000E+00
    -16.090  0.4579E-05  0.2000E+00
    -16.018  0.3540E-06  0.2000E+00
    -15.947  0.2123E-07  0.2000E+00
    -15.875  0.9879E-09  0.2000E+00
    -15.803  0.3565E-10  0.2000E+00
    -15.731  0.9978E-12  0.2000E+00
    -15.660  0.2173E-13  0.2000E+00
    -15.588  0.3094E-15  0.2000E+00
    -15.516  0.0000E+00  0.2000E+00
    -15.444  0.0000E+00  0.2000E+00
    -15.372  0.0000E+00  0.2000E+00
    -15.301  0.0000E+00  0.2000E+00
    -15.229  0.0000E+00  0.2000E+00
    -15.157  0.0000E+00  0.2000E+00
    -15.085  0.0000E+00  0.2000E+00
    -15.014  0.0000E+00  0.2000E+00
    -14.942  0.0000E+00  0.2000E+00
    -14.870  0.0000E+00  0.2000E+00
    -14.798  0.0000E+00  0.2000E+00
    -14.726  0.0000E+00  0.2000E+00
    -14.655  0.0000E+00  0.2000E+00
    -14.583  0.0000E+00  0.2000E+00
    -14.511  0.0000E+00  0.2000E+00
    -14.439  0.0000E+00  0.2000E+00
    -14.368  0.0000E+00  0.2000E+00
    -14.296  0.0000E+00  0.2000E+00
    -14.224  0.0000E+00  0.2000E+00
    -14.152  0.0000E+00  0.2000E+00
    -14.081  0.0000E+00  0.2000E+00
    -14.009  0.0000E+00  0.2000E+00
    -13.937  0.0000E+00  0.2000E+00
    -13.865  0.0000E+00  0.2000E+00
    -13.793  0.0000E+00  0.2000E+00
    -13.722  0.0000E+00  0.2000E+00
    -13.650  0.0000E+00  0.2000E+00
    -13.578  0.0000E+00  0.2000E+00
    -13.506  0.0000E+00  0.2000E+00
    -13.435  0.0000E+00  0.2000E+00
    -13.363  0.0000E+00  0.2000E+00
    -13.291  0.0000E+00  0.2000E+00
    -13.219  0.0000E+00  0.2000E+00
    -13.147  0.0000E+00  0.2000E+00
    -13.076  0.0000E+00  0.2000E+00
    -13.004  0.0000E+00  0.2000E+00
    -12.932  0.0000E+00  0.2000E+00
    -12.860  0.0000E+00  0.2000E+00
    -12.789  0.0000E+00  0.2000E+00
    -12.717  0.0000E+00  0.2000E+00
    -12.645  0.0000E+00  0.2000E+00
    -12.573  0.0000E+00  0.2000E+00
    -12.501  0.0000E+00  0.2000E+00
    -12.430  0.0000E+00  0.2000E+00
    -12.358  0.0000E+00  0.2000E+00
    -12.286  0.0000E+00  0.2000E+00
    -12.214  0.0000E+00  0.2000E+00
    -12.143  0.0000E+00  0.2000E+00
    -12.071  0.0000E+00  0.2000E+00
    -11.999  0.0000E+00  0.2000E+00
    -11.927  0.0000E+00  0.2000E+00
    -11.856  0.0000E+00  0.2000E+00
    -11.784  0.0000E+00  0.2000E+00
    -11.712  0.0000E+00  0.2000E+00
    -11.640  0.0000E+00  0.2000E+00
    -11.568  0.0000E+00  0.2000E+00
    -11.497  0.0000E+00  0.2000E+00
    -11.425  0.0000E+00  0.2000E+00
    -11.353  0.0000E+00  0.2000E+00
    -11.281  0.0000E+00  0.2000E+00
    -11.210  0.0000E+00  0.2000E+00
    -11.138  0.0000E+00  0.2000E+00
    -11.066  0.0000E+00  0.2000E+00
    -10.994  0.0000E+00  0.2000E+00
    -10.922  0.0000E+00  0.2000E+00
    -10.851  0.0000E+00  0.2000E+00
    -10.779  0.0000E+00  0.2000E+00
    -10.707  0.0000E+00  0.2000E+00
    -10.635  0.0000E+00  0.2000E+00
    -10.564  0.0000E+00  0.2000E+00
    -10.492  0.1547E-15  0.2000E+00
    -10.420  0.1307E-13  0.2000E+00
    -10.348  0.6281E-12  0.2000E+00
    -10.276  0.2341E-10  0.2000E+00
    -10.205  0.6784E-09  0.2000E+00
    -10.133  0.1528E-07  0.2000E+00
    -10.061  0.2679E-06  0.2000E+00
     -9.989  0.3659E-05  0.2000E+00
     -9.918  0.3897E-04  0.2000E+00
     -9.846  0.3241E-03  0.2000E+00
     -9.774  0.2109E-02  0.2002E+00
     -9.702  0.1076E-01  0.2009E+00
     -9.631  0.4313E-01  0.2040E+00
     -9.559  0.1364E+00  0.2138E+00
     -9.487  0.3421E+00  0.2384E+00
     -9.415  0.6837E+00  0.2875E+00
     -9.343  0.1097E+01  0.3662E+00
     -9.272  0.1423E+01  0.4683E+00
     -9.200  0.1502E+01  0.5761E+00
     -9.128  0.1297E+01  0.6692E+00
     -9.056  0.9170E+00  0.7350E+00
     -8.985  0.5289E+00  0.7730E+00
     -8.913  0.2473E+00  0.7907E+00
     -8.841  0.9303E-01  0.7974E+00
     -8.769  0.2792E-01  0.7994E+00
     -8.697  0.6642E-02  0.7999E+00
     -8.626  0.1245E-02  0.8000E+00
     -8.554  0.1830E-03  0.8000E+00
     -8.482  0.2104E-04  0.8000E+00
     -8.410  0.1887E-05  0.8000E+00
     -8.339  0.1318E-06  0.8000E+00
     -8.267  0.7158E-08  0.8000E+00
     -8.195  0.3021E-09  0.8000E+00
     -8.123  0.9902E-11  0.8000E+00
     -8.052  0.2520E-12  0.8000E+00
     -7.980  0.4950E-14  0.8000E+00
     -7.908  0.0000E+00  0.8000E+00
     -7.836  0.0000E+00  0.8000E+00
     -7.764  0.0000E+00  0.8000E+00
     -7.693  0.0000E+00  0.8000E+00
     -7.621  0.0000E+00  0.8000E+00
     -7.549  0.0000E+00  0.8000E+00
     -7.477  0.0000E+00  0.8000E+00
     -7.406  0.0000E+00  0.8000E+00
     -7.334  0.0000E+00  0.8000E+00
     -7.262  0.0000E+00  0.8000E+00
     -7.190  0.0000E+00  0.8000E+00
     -7.118  0.0000E+00  0.8000E+00
     -7.047  0.0000E+00  0.8000E+00
     -6.975  0.0000E+00  0.8000E+00
     -6.903  0.0000E+00  0.8000E+00
     -6.831  0.0000E+00  0.8000E+00
     -6.760  0.0000E+00  0.8000E+00
     -6.688  0.0000E+00  0.8000E+00
     -6.616  0.0000E+00  0.8000E+00
     -6.544  0.0000E+00  0.8000E+00
     -6.472  0.0000E+00  0.8000E+00
     -6.401  0.0000E+00  0.8000E+00
     -6.329  0.0000E+00  0.8000E+00
     -6.257  0.0000E+00  0.8000E+00
     -6.185  0.0000E+00  0.8000E+00
     -6.114  0.0000E+00  0.8000E+00
     -6.042  0.0000E+00  0.8000E+00
     -5.970  0.0000E+00  0.8000E+00
     -5.898  0.0000E+00  0.8000E+00
     -5.827  0.0000E+00  0.8000E+00
     -5.755  0.0000E+00  0.8000E+00
     -5.683  0.0000E+00  0.8000E+00
     -5.611  0.0000E+00  0.8000E+00
     -5.539  0.0000E+00  0.8000E+00
     -5.468  0.0000E+00  0.8000E+00
     -5.396  0.0000E+00  0.8000E+00
     -5.324  0.0000E+00  0.8000E+00
     -5.252  0.0000E+00  0.8000E+00
     -5.181  0.0000E+00  0.8000E+00
     -5.109  0.0000E+00  0.8000E+00
     -5.037  0.0000E+00  0.8000E+00
     -4.965  0.0000E+00  0.8000E+00
     -4.893  0.0000E+00  0.8000E+00
     -4.822  0.0000E+00  0.8000E+00
     -4.750  0.0000E+00  0.8000E+00
     -4.678  0.0000E+00  0.8000E+00
     -4.606  0.0000E+00  0.8000E+00
     -4.535  0.0000E+00  0.8000E+00
     -4.463  0.0000E+00  0.8000E+00
     -4.391  0.0000E+00  0.8000E+00
     -4.319  0.0000E+00  0.8000E+00
     -4.248  0.0000E+00  0.8000E+00
     -4.176  0.0000E+00  0.8000E+00
     -4.104  0.0000E+00  0.8000E+00
     -4.032  0.0000E+00  0.8000E+00
     -3.960  0.0000E+00  0.8000E+00
     -3.889  0.0000E+00  0.8000E+00
     -3.817  0.0000E+00  0.8000E+00
     -3.745  0.0000E+00  0.8000E+00
     -3.673  0.0000E+00  0.8000E+00
     -3.602  0.0000E+00  0.8000E+00
     -3.530  0.0000E+00  0.8000E+00
     -3.458  0.0000E+00  0.8000E+00
     -3.386  0.0000E+00  0.8000E+00
     -3.314  0.0000E+00  0.8000E+00
     -3.243  0.0000E+00  0.8000E+00
     -3.171  0.0000E+00  0.8000E+00
     -3.099  0.0000E+00  0.8000E+00
     -3.027  0.0000E+00  0.8000E+00
     -2.956  0.0000E+00  0.8000E+00
     -2.884  0.0000E+00  0.8000E+00
     -2.812  0.0000E+00  0.8000E+00
     -2.740  0.0000E+00  0.8000E+00
     -2.668  0.0000E+00  0.8000E+00
     -2.597  0.0000E+00  0.8000E+00
     -2.525  0.0000E+00  0.8000E+00
     -2.453  0.0000E+00  0.8000E+00
     -2.381  0.0000E+00  0.8000E+00
     -2.310  0.0000E+00  0.8000E+00
     -2.238  0.0000E+00  0.8000E+00
     -2.166  0.0000E+00  0.8000E+00
     -2.094  0.0000E+00  0.8000E+00
     -2.023  0.0000E+00  0.8000E+00
     -1.951  0.0000E+00  0.8000E+00
     -1.879  0.0000E+00  0.8000E+00
     -1.807  0.0000E+00  0.8000E+00
     -1.735  0.0000E+00  0.8000E+00
     -1.664  0.0000E+00  0.8000E+00
     -1.592  0.0000E+00  0.8000E+00
     -1.520  0.0000E+00  0.8000E+00
     -1.448  0.2784E-14  0.8000E+00
     -1.377  0.1451E-12  0.8000E+00
     -1.305  0.5896E-11  0.8000E+00
     -1.233  0.1859E-09  0.8000E+00
     -1.161  0.4545E-08  0.8000E+00
     -1.089  0.8622E-07  0.8000E+00
     -1.018  0.1269E-05  0.8000E+00
     -0.946  0.1451E-04  0.8000E+00
     -0.874  0.1287E-03  0.8000E+00
     -0.802  0.8865E-03  0.8001E+00
     -0.731  0.4743E-02  0.8004E+00
     -0.659  0.1971E-01  0.8018E+00
     -0.587  0.6366E-01  0.8064E+00
     -0.515  0.1598E+00  0.8179E+00
     -0.443  0.3116E+00  0.8402E+00
     -0.372  0.4723E+00  0.8741E+00
     -0.300  0.5564E+00  0.9141E+00
     -0.228  0.5096E+00  0.9506E+00
     -0.156  0.3627E+00  0.9767E+00
     -0.085  0.2007E+00  0.9911E+00
     -0.013  0.8635E-01  0.9973E+00
      0.059  0.2924E-01  0.9994E+00
      0.131  0.9962E-02  0.1000E+01
      0.202  0.1351E-01  0.1001E+01
      0.274  0.4630E-01  0.1004E+01
      0.346  0.1409E+00  0.1014E+01
      0.418  0.3458E+00  0.1039E+01
      0.490  0.6856E+00  0.1089E+01
      0.561  0.1103E+01  0.1168E+01
      0.633  0.1444E+01  0.1271E+01
      0.705  0.1535E+01  0.1382E+01
      0.777  0.1318E+01  0.1476E+01
      0.848  0.9087E+00  0.1541E+01
      0.920  0.4996E+00  0.1577E+01
      0.992  0.2177E+00  0.1593E+01
      1.064  0.7483E-01  0.1598E+01
      1.136  0.2021E-01  0.1600E+01
      1.207  0.4276E-02  0.1600E+01
      1.279  0.7073E-03  0.1600E+01
      1.351  0.9134E-04  0.1600E+01
      1.423  0.9198E-05  0.1600E+01
      1.494  0.7216E-06  0.1600E+01
      1.566  0.4408E-07  0.1600E+01
      1.638  0.2095E-08  0.1600E+01
      1.710  0.7744E-10  0.1600E+01
      1.781  0.2225E-11  0.1600E+01
      1.853  0.4981E-13  0.1600E+01
      1.925  0.7734E-15  0.1600E+01
      1.997  0.0000E+00  0.1600E+01
      2.069  0.0000E+00  0.1600E+01
      2.140  0.0000E+00  0.1600E+01
      2.212  0.0000E+00  0.1600E+01
      2.284  0.0000E+00  0.1600E+01
      2.356  0.0000E+00  0.1600E+01
      2.427  0.0000E+00  0.1600E+01
      2.499  0.0000E+00  0.1600E+01
      2.571  0.0000E+00  0.1600E+01
      2.643  0.0000E+00  0.1600E+01
      2.715  0.0000E+00  0.1600E+01
