    5    5   10    1
  0.1958727E+03  0.9922518E-09  0.9870189E-09  0.1000578E-08  0.5000000E-15
  1.000000000000000E-004
  CAR 
 unknown system                          
      8      4      8
 
  0.2500000E+00  0.2500000E+00  0.2500000E+00  0.2500000E+00
    1      -16.817496   1.000000
    2       -9.324187   1.000000
    3       -9.262018   1.000000
    4       -9.164128   1.000000
    5       -0.320071   0.000000
    6        0.560222   0.000000
    7        0.665748   0.000000
    8        0.694653   0.000000
 
 -0.2500000E+00  0.2500000E+00  0.2500000E+00  0.2500000E+00
    1      -16.817538   1.000000
    2       -9.324249   1.000000
    3       -9.262171   1.000000
    4       -9.164185   1.000000
    5       -0.330404   0.000000
    6        0.585883   0.000000
    7        0.683896   0.000000
    8        0.714549   0.000000
 
  0.2500000E+00 -0.2500000E+00  0.2500000E+00  0.2500000E+00
    1      -16.817570   1.000000
    2       -9.324176   1.000000
    3       -9.262027   1.000000
    4       -9.164241   1.000000
    5       -0.325245   0.000000
    6        0.567509   0.000000
    7        0.674119   0.000000
    8        0.709892   0.000000
 
 -0.2500000E+00 -0.2500000E+00  0.2500000E+00  0.2500000E+00
    1      -16.817533   1.000000
    2       -9.324157   1.000000
    3       -9.262069   1.000000
    4       -9.164172   1.000000
    5       -0.324288   0.000000
    6        0.566350   0.000000
    7        0.680039   0.000000
    8        0.704344   0.000000
