 running on   16 total cores
 distrk:  each k-point on   16 cores,    1 groups
 distr:  one band on    4 cores,    4 groups
 using from now: INCAR     
 vasp.5.4.4.18Apr17-6-g9f103f2a35 (build Nov 25 2021 15:25:00) complex          
  
 POSCAR found type information on POSCAR  H  C 
 POSCAR found :  2 types and       5 ions
 scaLAPACK will be used
 LDA part: xc-table for Pade appr. of Perdew
 POSCAR found type information on POSCAR  H  C 
 POSCAR found :  2 types and       5 ions
 generate k-points for:    2    2    2
 POSCAR, INCAR and KPOINTS ok, starting setup
 FFT: planning ...
 WAVECAR not read
 prediction of wavefunctions initialized - no I/O
 entering main loop
       N       E                     dE             d eps       ncg     rms          rms(c)
DAV:   1     0.218292901099E+02    0.21829E+02   -0.19280E+03    88   0.415E+02
DAV:   2    -0.199912687283E+02   -0.41821E+02   -0.35572E+02    72   0.103E+02
DAV:   3    -0.272367348126E+02   -0.72455E+01   -0.72455E+01    64   0.505E+01
DAV:   4    -0.276444687793E+02   -0.40773E+00   -0.40773E+00   112   0.127E+01
DAV:   5    -0.276539312295E+02   -0.94625E-02   -0.94625E-02   104   0.119E+00    0.887E+00
RMM:   6    -0.246658247653E+02    0.29881E+01   -0.55991E+00    64   0.145E+01    0.436E+00
RMM:   7    -0.241554654252E+02    0.51036E+00   -0.13050E+00    64   0.662E+00    0.231E+00
RMM:   8    -0.240077399598E+02    0.14773E+00   -0.16266E-01    64   0.290E+00    0.225E-01
RMM:   9    -0.240019959627E+02    0.57440E-02   -0.11325E-02    64   0.706E-01    0.198E-01
RMM:  10    -0.239960319000E+02    0.59641E-02   -0.24374E-02    64   0.854E-01    0.284E-01
RMM:  11    -0.239965154743E+02   -0.48357E-03   -0.69736E-03    64   0.525E-01    0.674E-02
RMM:  12    -0.240064959992E+02   -0.99805E-02   -0.43628E-03    64   0.410E-01    0.131E-01
RMM:  13    -0.240068672891E+02   -0.37129E-03   -0.81706E-04    64   0.161E-01    0.614E-02
RMM:  14    -0.240096797802E+02   -0.28125E-02   -0.19978E-03    64   0.275E-01    0.436E-02
RMM:  15    -0.240098909808E+02   -0.21120E-03   -0.13950E-04    64   0.727E-02    0.150E-02
RMM:  16    -0.240100982052E+02   -0.20722E-03   -0.14616E-04    64   0.751E-02    0.130E-02
RMM:  17    -0.240101159320E+02   -0.17727E-04   -0.32958E-05    64   0.329E-02    0.183E-03
RMM:  18    -0.240101322531E+02   -0.16321E-04   -0.12279E-06    48   0.969E-03    0.661E-04
RMM:  19    -0.240101348851E+02   -0.26319E-05   -0.41871E-07    48   0.567E-03    0.861E-04
RMM:  20    -0.240101363404E+02   -0.14553E-05   -0.10894E-07    48   0.247E-03    0.275E-04
RMM:  21    -0.240101365990E+02   -0.25861E-06    0.00000E+00    32   0.113E-03
    1 T=     1. E= -.24009725E+02 F= -.24010137E+02 E0= -.24010137E+02  EK= 0.41111E-03 SP= 0.00E+00 SK= 0.00E+00
 bond charge predicted
       N       E                     dE             d eps       ncg     rms          rms(c)
DAV:   1    -0.240132645019E+02   -0.31282E-02   -0.36672E-03    88   0.548E-01    0.316E-02
RMM:   2    -0.240132494463E+02    0.15056E-04   -0.82280E-05    64   0.701E-02    0.165E-02
RMM:   3    -0.240132474540E+02    0.19922E-05   -0.25839E-05    64   0.344E-02    0.502E-03
RMM:   4    -0.240132473441E+02    0.10998E-06   -0.78556E-07    48   0.774E-03
    2 T=     7. E= -.24009798E+02 F= -.24013247E+02 E0= -.24013247E+02  EK= 0.34498E-02 SP= 0.00E+00 SK= 0.00E+00
 bond charge predicted
 prediction of wavefunctions
       N       E                     dE             d eps       ncg     rms          rms(c)
DAV:   1    -0.240183188043E+02   -0.50714E-02   -0.27612E-03    64   0.495E-01    0.998E-03
RMM:   2    -0.240183281561E+02   -0.93518E-05   -0.94858E-05    64   0.827E-02    0.382E-03
RMM:   3    -0.240183285943E+02   -0.43824E-06   -0.28188E-06    52   0.141E-02    0.396E-03
RMM:   4    -0.240183288044E+02   -0.21009E-06   -0.52552E-07    48   0.659E-03
    3 T=    16. E= -.24009910E+02 F= -.24018329E+02 E0= -.24018329E+02  EK= 0.84189E-02 SP= 0.00E+00 SK= 0.00E+00
 bond charge predicted
 prediction of wavefunctions
       N       E                     dE             d eps       ncg     rms          rms(c)
DAV:   1    -0.240235953233E+02   -0.52667E-02   -0.90354E-04    64   0.244E-01    0.988E-03
RMM:   2    -0.240235941298E+02    0.11934E-05   -0.27224E-05    64   0.443E-02    0.577E-03
RMM:   3    -0.240235942690E+02   -0.13917E-06   -0.10930E-05    64   0.198E-02    0.174E-03
RMM:   4    -0.240235943750E+02   -0.10602E-06   -0.39563E-07    48   0.502E-03
    4 T=    26. E= -.24010017E+02 F= -.24023594E+02 E0= -.24023594E+02  EK= 0.13577E-01 SP= 0.00E+00 SK= 0.00E+00
 bond charge predicted
 prediction of wavefunctions
       N       E                     dE             d eps       ncg     rms          rms(c)
DAV:   1    -0.240272798850E+02   -0.36856E-02   -0.11374E-03    64   0.279E-01    0.501E-03
RMM:   2    -0.240272825944E+02   -0.27094E-05   -0.66019E-06    64   0.214E-02    0.263E-03
RMM:   3    -0.240272852807E+02   -0.26863E-05   -0.66664E-07    48   0.668E-03    0.118E-03
RMM:   4    -0.240272883650E+02   -0.30843E-05   -0.16412E-07    48   0.290E-03    0.290E-04
RMM:   5    -0.240272906888E+02   -0.23238E-05   -0.11043E-07    43   0.191E-03    0.239E-04
RMM:   6    -0.240272940432E+02   -0.33544E-05   -0.22731E-07    44   0.239E-03    0.150E-04
RMM:   7    -0.240272945463E+02   -0.50318E-06   -0.26562E-09    33   0.142E-03
    5 T=    33. E= -.24010081E+02 F= -.24027295E+02 E0= -.24027295E+02  EK= 0.17214E-01 SP= 0.00E+00 SK= 0.00E+00
 bond charge predicted
 prediction of wavefunctions
       N       E                     dE             d eps       ncg     rms          rms(c)
DAV:   1    -0.240283276817E+02   -0.10336E-02   -0.13176E-03    64   0.311E-01    0.624E-03
RMM:   2    -0.240283286488E+02   -0.96710E-06   -0.86314E-06    64   0.295E-02    0.324E-03
RMM:   3    -0.240283307772E+02   -0.21284E-05   -0.29876E-06    60   0.111E-02    0.893E-04
RMM:   4    -0.240283316357E+02   -0.85849E-06   -0.13557E-07    48   0.314E-03
    6 T=    35. E= -.24010084E+02 F= -.24028332E+02 E0= -.24028332E+02  EK= 0.18247E-01 SP= 0.00E+00 SK= 0.00E+00
 bond charge predicted
 prediction of wavefunctions
       N       E                     dE             d eps       ncg     rms          rms(c)
DAV:   1    -0.240265567586E+02    0.17740E-02   -0.13143E-03    64   0.313E-01    0.213E-03
RMM:   2    -0.240265588304E+02   -0.20718E-05   -0.10333E-05    64   0.337E-02    0.165E-03
RMM:   3    -0.240265595084E+02   -0.67798E-06   -0.28201E-07    48   0.497E-03    0.113E-03
RMM:   4    -0.240265609855E+02   -0.14771E-05   -0.45136E-07    48   0.462E-03    0.355E-04
RMM:   5    -0.240265615071E+02   -0.52158E-06   -0.30029E-08    41   0.190E-03
    7 T=    32. E= -.24010034E+02 F= -.24026562E+02 E0= -.24026562E+02  EK= 0.16527E-01 SP= 0.00E+00 SK= 0.00E+00
 bond charge predicted
 prediction of wavefunctions
       N       E                     dE             d eps       ncg     rms          rms(c)
DAV:   1    -0.240227147732E+02    0.38462E-02   -0.10604E-03    80   0.271E-01    0.277E-03
RMM:   2    -0.240227169119E+02   -0.21387E-05   -0.10230E-05    63   0.314E-02    0.138E-03
RMM:   3    -0.240227179609E+02   -0.10489E-05   -0.35599E-07    48   0.518E-03    0.867E-04
RMM:   4    -0.240227192938E+02   -0.13330E-05   -0.13336E-07    48   0.308E-03    0.319E-04
RMM:   5    -0.240227202249E+02   -0.93107E-06   -0.20758E-08    40   0.167E-03
    8 T=    25. E= -.24009950E+02 F= -.24022720E+02 E0= -.24022720E+02  EK= 0.12771E-01 SP= 0.00E+00 SK= 0.00E+00
 bond charge predicted
 prediction of wavefunctions
       N       E                     dE             d eps       ncg     rms          rms(c)
DAV:   1    -0.240181068371E+02    0.46125E-02   -0.67566E-04    64   0.227E-01    0.205E-03
RMM:   2    -0.240181089172E+02   -0.20802E-05   -0.11676E-05    62   0.330E-02    0.160E-03
RMM:   3    -0.240181093381E+02   -0.42087E-06   -0.22590E-07    48   0.434E-03    0.134E-03
RMM:   4    -0.240181112091E+02   -0.18710E-05   -0.30114E-07    48   0.391E-03    0.457E-04
RMM:   5    -0.240181113337E+02   -0.12456E-06   -0.40979E-08    48   0.198E-03
    9 T=    16. E= -.24009855E+02 F= -.24018111E+02 E0= -.24018111E+02  EK= 0.82566E-02 SP= 0.00E+00 SK= 0.00E+00
 bond charge predicted
 prediction of wavefunctions
       N       E                     dE             d eps       ncg     rms          rms(c)
DAV:   1    -0.240141808876E+02    0.39303E-02   -0.32178E-04    64   0.165E-01    0.200E-03
RMM:   2    -0.240141828718E+02   -0.19842E-05   -0.80536E-06    56   0.275E-02    0.130E-03
RMM:   3    -0.240141836189E+02   -0.74712E-06   -0.21857E-07    48   0.426E-03    0.101E-03
RMM:   4    -0.240141855443E+02   -0.19253E-05   -0.27161E-08    40   0.212E-03    0.213E-04
RMM:   5    -0.240141867138E+02   -0.11695E-05   -0.42662E-08    40   0.168E-03    0.158E-04
RMM:   6    -0.240141875341E+02   -0.82030E-06    0.00000E+00    32   0.126E-03
   10 T=     9. E= -.24009781E+02 F= -.24014188E+02 E0= -.24014188E+02  EK= 0.44070E-02 SP= 0.00E+00 SK= 0.00E+00
 bond charge predicted
 prediction of wavefunctions
 wavefunctions rotated
