 vasp.5.4.4.18Apr17-6-g9f103f2a35 (build Nov 25 2021 15:25:00) complex          
  
 executed on             LinuxIFC date 2022.02.21  10:17:27
 running on   16 total cores
 distrk:  each k-point on   16 cores,    1 groups
 distr:  one band on NCORES_PER_BAND=   4 cores,    4 groups


--------------------------------------------------------------------------------------------------------


 INCAR:
 POTCAR:    PAW_PBE H 15Jun2001                   
 POTCAR:    PAW_PBE C 08Apr2002                   
 POTCAR:    PAW_PBE H 15Jun2001                   
   VRHFIN =H: ultrasoft test                                                    
   LEXCH  = PE                                                                  
   EATOM  =    12.4884 eV,    0.9179 Ry                                         
                                                                                
   TITEL  = PAW_PBE H 15Jun2001                                                 
   LULTRA =        F    use ultrasoft PP ?                                      
   IUNSCR =        0    unscreen: 0-lin 1-nonlin 2-no                           
   RPACOR =    0.000    partial core radius                                     
   POMASS =    1.000; ZVAL   =    1.000    mass and valenz                      
   RCORE  =    1.100    outmost cutoff radius                                   
   RWIGS  =    0.700; RWIGS  =    0.370    wigner-seitz radius (au A)           
   ENMAX  =  250.000; ENMIN  =  200.000 eV                                      
   RCLOC  =    0.701    cutoff for local pot                                    
   LCOR   =        T    correct aug charges                                     
   LPAW   =        T    paw PP                                                  
   EAUG   =  400.000                                                            
   RMAX   =    1.123    core radius for proj-oper                               
   RAUG   =    1.200    factor for augmentation sphere                          
   RDEP   =    1.112    radius for radial grids                                 
   RDEPT  =    0.926    core radius for aug-charge                              
                                                                                
   Atomic configuration                                                         
    2 entries                                                                   
     n  l   j            E        occ.                                          
     1  0  0.50        -6.4927   1.0000                                         
     2  1  0.50        -3.4015   0.0000                                         
   Description                                                                  
     l       E           TYP  RCUT    TYP  RCUT                                 
     0     -6.4927494     23  1.100                                             
     0      6.8029130     23  1.100                                             
     1     -4.0817478     23  1.100                                             
  local pseudopotential read in
  atomic valenz-charges read in
  non local Contribution for L=           0  read in
    real space projection operators read in
  non local Contribution for L=           0  read in
    real space projection operators read in
  non local Contribution for L=           1  read in
    real space projection operators read in
    PAW grid and wavefunctions read in
 
   number of l-projection  operators is LMAX  =           3
   number of lm-projection operators is LMMAX =           5
 
 POTCAR:    PAW_PBE C 08Apr2002                   
   VRHFIN =C: s2p2                                                              
   LEXCH  = PE                                                                  
   EATOM  =   147.1560 eV,   10.8157 Ry                                         
                                                                                
   TITEL  = PAW_PBE C 08Apr2002                                                 
   LULTRA =        F    use ultrasoft PP ?                                      
   IUNSCR =        1    unscreen: 0-lin 1-nonlin 2-no                           
   RPACOR =    1.200    partial core radius                                     
   POMASS =   12.011; ZVAL   =    4.000    mass and valenz                      
   RCORE  =    1.500    outmost cutoff radius                                   
   RWIGS  =    1.630; RWIGS  =    0.863    wigner-seitz radius (au A)           
   ENMAX  =  400.000; ENMIN  =  300.000 eV                                      
   ICORE  =        2    local potential                                         
   LCOR   =        T    correct aug charges                                     
   LPAW   =        T    paw PP                                                  
   EAUG   =  644.873                                                            
   DEXC   =    0.000                                                            
   RMAX   =    1.529    core radius for proj-oper                               
   RAUG   =    1.300    factor for augmentation sphere                          
   RDEP   =    1.501    radius for radial grids                                 
   RDEPT  =    1.300    core radius for aug-charge                              
                                                                                
   Atomic configuration                                                         
    4 entries                                                                   
     n  l   j            E        occ.                                          
     1  0  0.50      -273.3789   2.0000                                         
     2  0  0.50       -13.7508   2.0000                                         
     2  1  0.50        -5.2854   2.0000                                         
     3  2  1.50        -5.4423   0.0000                                         
   Description                                                                  
     l       E           TYP  RCUT    TYP  RCUT                                 
     0    -13.7508458     23  1.200                                             
     0     -8.2022199     23  1.200                                             
     1     -5.2854383     23  1.500                                             
     1     34.0145650     23  1.500                                             
     2     -5.4423304      7  1.500                                             
  local pseudopotential read in
  partial core-charges read in
  partial kinetic energy density read in
  atomic valenz-charges read in
  non local Contribution for L=           0  read in
    real space projection operators read in
  non local Contribution for L=           0  read in
    real space projection operators read in
  non local Contribution for L=           1  read in
    real space projection operators read in
  non local Contribution for L=           1  read in
    real space projection operators read in
    PAW grid and wavefunctions read in
 
   number of l-projection  operators is LMAX  =           4
   number of lm-projection operators is LMMAX =           8
 
  PAW_PBE H 15Jun2001                   :
 energy of atom  1       EATOM=  -12.4884
 kinetic energy error for atom=    0.0098 (will be added to EATOM!!)
  PAW_PBE C 08Apr2002                   :
 energy of atom  2       EATOM= -147.1560
 kinetic energy error for atom=    0.0288 (will be added to EATOM!!)
 
 
 POSCAR:  H  C                                   
  positions in cartesian coordinates
  No initial velocities read in
 exchange correlation table for  LEXCH =        8
   RHO(1)=    0.500       N(1)  =     2000
   RHO(2)=  100.500       N(2)  =     4000

 VTST: version 3.2, (02/03/18)

 CHAIN: initializing optimizer
 
 OPT: Using VASP Dynamics algorithm
 CHAIN: Read ICHAIN            0
 
 POSCAR:  H  C                                   
  positions in cartesian coordinates
  No initial velocities read in
 


--------------------------------------------------------------------------------------------------------


 ion  position               nearest neighbor table
   1  0.538  0.407  0.361-   5 1.10
   2  0.395  0.480  0.438-   5 1.10
   3  0.552  0.565  0.443-   5 1.07
   4  0.528  0.416  0.539-   5 1.09
   5  0.504  0.468  0.446-   3 1.07   4 1.09   2 1.10   1 1.10
 

IMPORTANT INFORMATION: All symmetrisations will be switched off!
NOSYMM: (Re-)initialisation of all symmetry stuff for point group C_1.

 
 

Automatic generation of k-mesh.
 generate k-points for:    2    2    2
Space group operators:
 irot       det(A)        alpha          n_x          n_y          n_z        tau_x        tau_y        tau_z
    1     1.000000     0.000001     1.000000     0.000000     0.000000     0.000000     0.000000     0.000000
 
 Subroutine IBZKPT returns following result:
 ===========================================
 
 Found      4 irreducible k-points:
 
 Following reciprocal coordinates:
            Coordinates               Weight
  0.250000  0.250000  0.250000      2.000000
 -0.250000  0.250000  0.250000      2.000000
  0.250000 -0.250000  0.250000      2.000000
 -0.250000 -0.250000  0.250000      2.000000
 
 Following cartesian coordinates:
            Coordinates               Weight
  0.025195  0.025960  0.025581      2.000000
 -0.025195  0.024713  0.024390      2.000000
  0.025195 -0.024713  0.025595      2.000000
 -0.025195 -0.025960  0.024404      2.000000
 


--------------------------------------------------------------------------------------------------------




 Dimension of arrays:
   k-points           NKPTS =      4   k-points in BZ     NKDIM =      4   number of bands    NBANDS=      8
   number of dos      NEDOS =    301   number of ions     NIONS =      5
   non local maximal  LDIM  =      4   non local SUM 2l+1 LMDIM =      8
   total plane-waves  NPLWV = 313600
   max r-space proj   IRMAX =      1   max aug-charges    IRDMAX=   3978
   dimension x,y,z NGX =    70 NGY =   64 NGZ =   70
   dimension x,y,z NGXF=   140 NGYF=  128 NGZF=  140
   support grid    NGXF=   140 NGYF=  128 NGZF=  140
   ions per type =               4   1
   NGX,Y,Z   is equivalent  to a cutoff of  11.73, 10.78, 11.63 a.u.
   NGXF,Y,Z  is equivalent  to a cutoff of  23.46, 21.56, 23.26 a.u.

 SYSTEM =  unknown system                          
 POSCAR =   H  C                                   

 Startparameter for this run:
   NWRITE =      2    write-flag & timer
   PREC   = a         normal or accurate (medium, high low for compatibility)
   ISTART =      0    job   : 0-new  1-cont  2-samecut
   ICHARG =      2    charge: 1-file 2-atom 10-const
   ISPIN  =      1    spin polarized calculation?
   LNONCOLLINEAR =      F non collinear calculations
   LSORBIT =      F    spin-orbit coupling
   INIWAV =      1    electr: 0-lowe 1-rand  2-diag
   LASPH  =      F    aspherical Exc in radial PAW
   METAGGA=      F    non-selfconsistent MetaGGA calc.

 Electronic Relaxation 1
   ENCUT  =  400.0 eV  29.40 Ry    5.42 a.u.  16.18 16.10 16.32*2*pi/ulx,y,z
   ENINI  =  400.0     initial cutoff
   ENAUG  =  644.9 eV  augmentation charge cutoff
   NELM   =    120;   NELMIN=  4; NELMDL= -5     # of ELM steps 
   EDIFF  = 0.1E-05   stopping-criterion for ELM
   LREAL  =      F    real-space projection
   NLSPLINE    = F    spline interpolate recip. space projectors
   LCOMPAT=      F    compatible to vasp.4.4
   GGA_COMPAT  = T    GGA compatible to vasp.4.4-vasp.4.6
   LMAXPAW     = -100 max onsite density
   LMAXMIX     =    2 max onsite mixed and CHGCAR
   VOSKOWN=      0    Vosko Wilk Nusair interpolation
   ROPT   =    0.00000   0.00000
 Ionic relaxation
   EDIFFG = 0.1E-04   stopping-criterion for IOM
   NSW    =     10    number of steps for IOM
   NBLOCK =      1;   KBLOCK =     10    inner block; outer block 
   IBRION =      0    ionic relax: 0-MD 1-quasi-New 2-CG
   NFREE  =      0    steps in history (QN), initial steepest desc. (CG)
   ISIF   =      2    stress and relaxation
   IWAVPR =     12    prediction:  0-non 1-charg 2-wave 3-comb
   ISYM   =      0    0-nonsym 1-usesym 2-fastsym
   LCORR  =      T    Harris-Foulkes like correction to forces

   POTIM  = 0.5000    time-step for ionic-motion
   TEIN   =    0.0    initial temperature
   TEBEG  =    0.0;   TEEND  =   0.0 temperature during run
   SMASS  =  -3.00    Nose mass-parameter (am)
   estimated Nose-frequenzy (Omega)   =  0.10E-29 period in steps =****** mass=  -0.225E-26a.u.
   SCALEE = 1.0000    scale energy and forces
   NPACO  =    256;   APACO  = 16.0  distance and # of slots for P.C.
   PSTRESS=    0.0 pullay stress

  Mass of Ions in am
   POMASS =   1.00 12.01
  Ionic Valenz
   ZVAL   =   1.00  4.00
  Atomic Wigner-Seitz radii
   RWIGS  =  -1.00 -1.00
  virtual crystal weights 
   VCA    =   1.00  1.00
   NELECT =       8.0000    total number of electrons
   NUPDOWN=      -1.0000    fix difference up-down

 DOS related values:
   EMIN   =  10.00;   EMAX   =-10.00  energy-range for DOS
   EFERMI =   0.00
   ISMEAR =     0;   SIGMA  =   0.20  broadening in eV -4-tet -1-fermi 0-gaus

 Electronic relaxation 2 (details)
   IALGO  =     68    algorithm
   LDIAG  =      T    sub-space diagonalisation (order eigenvalues)
   LSUBROT=      F    optimize rotation matrix (better conditioning)
   TURBO    =      0    0=normal 1=particle mesh
   IRESTART =      0    0=no restart 2=restart with 2 vectors
   NREBOOT  =      0    no. of reboots
   NMIN     =      0    reboot dimension
   EREF     =   0.00    reference energy to select bands
   IMIX   =      4    mixing-type and parameters
     AMIX     =   0.40;   BMIX     =  1.00
     AMIX_MAG =   1.60;   BMIX_MAG =  1.00
     AMIN     =   0.10
     WC   =   100.;   INIMIX=   1;  MIXPRE=   1;  MAXMIX= -45

 Intra band minimization:
   WEIMIN = 0.0010     energy-eigenvalue tresh-hold
   EBREAK =  0.31E-07  absolut break condition
   DEPER  =   0.30     relativ break condition  

   TIME   =   0.40     timestep for ELM

  volume/ion in A,a.u.               =     195.87      1321.81
  Fermi-wavevector in a.u.,A,eV,Ry     =   0.329703  0.623049  1.479013  0.108704
  Thomas-Fermi vector in A             =   1.224378
 
 Write flags
   LWAVE        =      F    write WAVECAR
   LDOWNSAMPLE  =      F    k-point downsampling of WAVECAR
   LCHARG       =      F    write CHGCAR
   LVTOT        =      F    write LOCPOT, total local potential
   LVHAR        =      F    write LOCPOT, Hartree potential only
   LELF         =      F    write electronic localiz. function (ELF)
   LORBIT       =      0    0 simple, 1 ext, 2 COOP (PROOUT), +10 PAW based schemes


 Dipole corrections
   LMONO  =      F    monopole corrections only (constant potential shift)
   LDIPOL =      F    correct potential (dipole corrections)
   IDIPOL =      0    1-x, 2-y, 3-z, 4-all directions 
   EPSILON=  1.0000000 bulk dielectric constant

 Exchange correlation treatment:
   GGA     =    --    GGA type
   LEXCH   =     8    internal setting for exchange type
   VOSKOWN=      0    Vosko Wilk Nusair interpolation
   LHFCALC =     F    Hartree Fock is set to
   LHFONE  =     F    Hartree Fock one center treatment
   AEXX    =    0.0000 exact exchange contribution

 Linear response parameters
   LEPSILON=     F    determine dielectric tensor
   LRPA    =     F    only Hartree local field effects (RPA)
   LNABLA  =     F    use nabla operator in PAW spheres
   LVEL    =     F    velocity operator in full k-point grid
   LINTERFAST=   F  fast interpolation
   KINTER  =     0    interpolate to denser k-point grid
   CSHIFT  =0.1000    complex shift for real part using Kramers Kronig
   OMEGAMAX=  -1.0    maximum frequency
   DEG_THRESHOLD= 0.2000000E-02 threshold for treating states as degnerate
   RTIME   =   -0.100 relaxation time in fs
  (WPLASMAI=    0.000 imaginary part of plasma frequency in eV, 0.658/RTIME)
   DFIELD  = 0.0000000 0.0000000 0.0000000 field for delta impulse in time
 
 Orbital magnetization related:
   ORBITALMAG=     F  switch on orbital magnetization
   LCHIMAG   =     F  perturbation theory with respect to B field
   DQ        =  0.001000  dq finite difference perturbation B field
   LLRAUG    =     F  two centre corrections for induced B field



--------------------------------------------------------------------------------------------------------


 molecular dynamics for ions
   using a microcanonical ensemble
 charge density and potential will be updated during run
 non-spin polarized calculation
 RMM-DIIS sequential band-by-band and
  variant of blocked Davidson during initial phase
 perform sub-space diagonalisation
    before iterative eigenvector-optimisation
 modified Broyden-mixing scheme, WC =      100.0
 initial mixing is a Kerker type mixing with AMIX =  0.4000 and BMIX =      1.0000
 Hartree-type preconditioning will be used
 using additional bands            4
 reciprocal scheme for non local part
 use partial core corrections
 calculate Harris-corrections to forces 
   (improved forces if not selfconsistent)
 use gradient corrections 
 use of overlap-Matrix (Vanderbilt PP)
 Gauss-broadening in eV      SIGMA  =   0.20


--------------------------------------------------------------------------------------------------------


  energy-cutoff  :      400.00
  volume of cell :      979.36
      direct lattice vectors                 reciprocal lattice vectors
     9.922517592  0.000000000  0.000000000     0.100780874  0.002492757  0.002383030
    -0.244058783  9.867170988  0.000000000     0.000000000  0.101346171 -0.000027309
    -0.236593651  0.002695432 10.002978495     0.000000000  0.000000000  0.099970224

  length of vectors
     9.922517592  9.870188853 10.005776462     0.100839860  0.101346175  0.099970224


 
 k-points in units of 2pi/SCALE and weight: read from INCAR                         
   0.02519522  0.02595973  0.02558149       0.250
  -0.02519522  0.02471335  0.02438997       0.250
   0.02519522 -0.02471335  0.02559514       0.250
  -0.02519522 -0.02595973  0.02440363       0.250
 
 k-points in reciprocal lattice and weights: read from INCAR                         
   0.25000000  0.25000000  0.25000000       0.250
  -0.25000000  0.25000000  0.25000000       0.250
   0.25000000 -0.25000000  0.25000000       0.250
  -0.25000000 -0.25000000  0.25000000       0.250
 
 position of ions in fractional coordinates (direct lattice) 
   0.53810621  0.40663110  0.36086851
   0.39454837  0.48032522  0.43847692
   0.55220391  0.56536889  0.44282098
   0.52794728  0.41637939  0.53921194
   0.50408850  0.46752936  0.44560530
 
 position of ions in cartesian coordinates  (Angst):
   5.15474729  4.01327130  3.60975996
   3.69394470  4.74063298  4.38607517
   5.23650110  5.57978507  4.42952870
   5.00937100  4.10994005  5.39372542
   4.78229503  4.61439319  4.45738027
 


--------------------------------------------------------------------------------------------------------


 k-point  1 :   0.2500 0.2500 0.2500  plane waves:   17772
 k-point  2 :  -0.2500 0.2500 0.2500  plane waves:   17806
 k-point  3 :   0.2500-0.2500 0.2500  plane waves:   17797
 k-point  4 :  -0.2500-0.2500 0.2500  plane waves:   17784

 maximum and minimum number of plane-waves per node :      4472     4434

 maximum number of plane-waves:     17806
 maximum index in each direction: 
   IXMAX=   16   IYMAX=   16   IZMAX=   16
   IXMIN=  -16   IYMIN=  -16   IZMIN=  -16


 parallel 3D FFT for wavefunctions:
    minimum data exchange during FFTs selected (reduces bandwidth)
 parallel 3D FFT for charge:
    minimum data exchange during FFTs selected (reduces bandwidth)


 total amount of memory used by VASP MPI-rank0    53440. kBytes
=======================================================================

   base      :      30000. kBytes
   nonl-proj :       2647. kBytes
   fftplans  :       7846. kBytes
   grid      :      12367. kBytes
   one-center:          6. kBytes
   wavefun   :        574. kBytes
 
     INWAV:  cpu time    0.0000: real time    0.0000
 Broyden mixing: mesh for mixing (old mesh)
   NGX = 33   NGY = 33   NGZ = 33
  (NGX  =140   NGY  =128   NGZ  =140)
  gives a total of  35937 points

 initial charge density was supplied:
 charge density of overlapping atoms calculated
 number of electron       8.0000000 magnetization 
 keeping initial charge density in first step


--------------------------------------------------------------------------------------------------------


 Maximum index for augmentation-charges          182 (set IRDMAX)


--------------------------------------------------------------------------------------------------------


 First call to EWALD:  gamma=   0.178
 Maximum number of real-space cells 3x 3x 3
 Maximum number of reciprocal cells 3x 3x 3

    FEWALD:  cpu time    0.0022: real time    0.0022


--------------------------------------- Iteration      1(   1)  ---------------------------------------


    POTLOK:  cpu time    0.1590: real time    0.1708
    SETDIJ:  cpu time    0.0039: real time    0.0048
     EDDAV:  cpu time    0.1810: real time    0.1983
       DOS:  cpu time    0.0005: real time    0.0013
    --------------------------------------------
      LOOP:  cpu time    0.3444: real time    0.3752

 eigenvalue-minimisations  :    88
 total energy-change (2. order) : 0.2182929E+02  (-0.1928000E+03)
 number of electron       8.0000000 magnetization 
 augmentation part        8.0000000 magnetization 

 Free energy of the ion-electron system (eV)
  ---------------------------------------------------
  alpha Z        PSCENC =         0.24735537
  Ewald energy   TEWEN  =       129.66874709
  -Hartree energ DENC   =      -244.05725773
  -exchange      EXHF   =         0.00000000
  -V(xc)+E(xc)   XCENC  =        22.05336310
  PAW double counting   =       117.05815612     -117.66307307
  entropy T*S    EENTRO =        -0.08452592
  eigenvalues    EBANDS =       -82.43522937
  atomic energy  EATOM  =       197.04175453
  Solvation  Ediel_sol  =         0.00000000
  ---------------------------------------------------
  free energy    TOTEN  =        21.82929011 eV

  energy without entropy =       21.91381603  energy(sigma->0) =       21.87155307


--------------------------------------------------------------------------------------------------------




--------------------------------------- Iteration      1(   2)  ---------------------------------------


     EDDAV:  cpu time    0.1519: real time    0.1519
       DOS:  cpu time    0.0003: real time    0.0003
    --------------------------------------------
      LOOP:  cpu time    0.1521: real time    0.1521

 eigenvalue-minimisations  :    72
 total energy-change (2. order) :-0.4182056E+02  (-0.3557172E+02)
 number of electron       8.0000000 magnetization 
 augmentation part        8.0000000 magnetization 

 Free energy of the ion-electron system (eV)
  ---------------------------------------------------
  alpha Z        PSCENC =         0.24735537
  Ewald energy   TEWEN  =       129.66874709
  -Hartree energ DENC   =      -244.05725773
  -exchange      EXHF   =         0.00000000
  -V(xc)+E(xc)   XCENC  =        22.05336310
  PAW double counting   =       117.05815612     -117.66307307
  entropy T*S    EENTRO =        -0.00000000
  eigenvalues    EBANDS =      -124.34031413
  atomic energy  EATOM  =       197.04175453
  Solvation  Ediel_sol  =         0.00000000
  ---------------------------------------------------
  free energy    TOTEN  =       -19.99126873 eV

  energy without entropy =      -19.99126873  energy(sigma->0) =      -19.99126873


--------------------------------------------------------------------------------------------------------




--------------------------------------- Iteration      1(   3)  ---------------------------------------


     EDDAV:  cpu time    0.1407: real time    0.1407
       DOS:  cpu time    0.0002: real time    0.0002
    --------------------------------------------
      LOOP:  cpu time    0.1408: real time    0.1409

 eigenvalue-minimisations  :    64
 total energy-change (2. order) :-0.7245466E+01  (-0.7245466E+01)
 number of electron       8.0000000 magnetization 
 augmentation part        8.0000000 magnetization 

 Free energy of the ion-electron system (eV)
  ---------------------------------------------------
  alpha Z        PSCENC =         0.24735537
  Ewald energy   TEWEN  =       129.66874709
  -Hartree energ DENC   =      -244.05725773
  -exchange      EXHF   =         0.00000000
  -V(xc)+E(xc)   XCENC  =        22.05336310
  PAW double counting   =       117.05815612     -117.66307307
  entropy T*S    EENTRO =        -0.00000000
  eigenvalues    EBANDS =      -131.58578022
  atomic energy  EATOM  =       197.04175453
  Solvation  Ediel_sol  =         0.00000000
  ---------------------------------------------------
  free energy    TOTEN  =       -27.23673481 eV

  energy without entropy =      -27.23673481  energy(sigma->0) =      -27.23673481


--------------------------------------------------------------------------------------------------------




--------------------------------------- Iteration      1(   4)  ---------------------------------------


     EDDAV:  cpu time    0.2110: real time    0.2147
       DOS:  cpu time    0.0002: real time    0.0002
    --------------------------------------------
      LOOP:  cpu time    0.2111: real time    0.2148

 eigenvalue-minimisations  :   112
 total energy-change (2. order) :-0.4077340E+00  (-0.4077340E+00)
 number of electron       8.0000000 magnetization 
 augmentation part        8.0000000 magnetization 

 Free energy of the ion-electron system (eV)
  ---------------------------------------------------
  alpha Z        PSCENC =         0.24735537
  Ewald energy   TEWEN  =       129.66874709
  -Hartree energ DENC   =      -244.05725773
  -exchange      EXHF   =         0.00000000
  -V(xc)+E(xc)   XCENC  =        22.05336310
  PAW double counting   =       117.05815612     -117.66307307
  entropy T*S    EENTRO =        -0.00000000
  eigenvalues    EBANDS =      -131.99351418
  atomic energy  EATOM  =       197.04175453
  Solvation  Ediel_sol  =         0.00000000
  ---------------------------------------------------
  free energy    TOTEN  =       -27.64446878 eV

  energy without entropy =      -27.64446878  energy(sigma->0) =      -27.64446878


--------------------------------------------------------------------------------------------------------




--------------------------------------- Iteration      1(   5)  ---------------------------------------


     EDDAV:  cpu time    0.1995: real time    0.1995
       DOS:  cpu time    0.0002: real time    0.0002
    CHARGE:  cpu time    0.0209: real time    0.0209
    MIXING:  cpu time    0.0041: real time    0.0041
    --------------------------------------------
      LOOP:  cpu time    0.2247: real time    0.2247

 eigenvalue-minimisations  :   104
 total energy-change (2. order) :-0.9462450E-02  (-0.9462450E-02)
 number of electron       8.0000002 magnetization 
 augmentation part        0.2282488 magnetization 

 Broyden mixing:
  rms(total) = 0.88674E+00    rms(broyden)= 0.88655E+00
  rms(prec ) = 0.12622E+01
  weight for this iteration     100.00

 Free energy of the ion-electron system (eV)
  ---------------------------------------------------
  alpha Z        PSCENC =         0.24735537
  Ewald energy   TEWEN  =       129.66874709
  -Hartree energ DENC   =      -244.05725773
  -exchange      EXHF   =         0.00000000
  -V(xc)+E(xc)   XCENC  =        22.05336310
  PAW double counting   =       117.05815612     -117.66307307
  entropy T*S    EENTRO =        -0.00000000
  eigenvalues    EBANDS =      -132.00297664
  atomic energy  EATOM  =       197.04175453
  Solvation  Ediel_sol  =         0.00000000
  ---------------------------------------------------
  free energy    TOTEN  =       -27.65393123 eV

  energy without entropy =      -27.65393123  energy(sigma->0) =      -27.65393123


--------------------------------------------------------------------------------------------------------




--------------------------------------- Iteration      1(   6)  ---------------------------------------


    POTLOK:  cpu time    0.1521: real time    0.1521
    SETDIJ:  cpu time    0.0019: real time    0.0019
    EDDIAG:  cpu time    0.0391: real time    0.0499
  RMM-DIIS:  cpu time    0.1485: real time    0.1485
    ORTHCH:  cpu time    0.0014: real time    0.0014
       DOS:  cpu time    0.0002: real time    0.0002
    CHARGE:  cpu time    0.0187: real time    0.0187
    MIXING:  cpu time    0.0048: real time    0.0065
    --------------------------------------------
      LOOP:  cpu time    0.3668: real time    0.3793

 eigenvalue-minimisations  :    64
 total energy-change (2. order) : 0.2988106E+01  (-0.5599052E+00)
 number of electron       8.0000002 magnetization 
 augmentation part        0.2011736 magnetization 

 Broyden mixing:
  rms(total) = 0.43593E+00    rms(broyden)= 0.43585E+00
  rms(prec ) = 0.56870E+00
  weight for this iteration     100.00

 eigenvalues of (default mixing * dielectric matrix)
  average eigenvalue GAMMA=   1.3113
  1.3113

 Free energy of the ion-electron system (eV)
  ---------------------------------------------------
  alpha Z        PSCENC =         0.24735537
  Ewald energy   TEWEN  =       129.66874709
  -Hartree energ DENC   =      -264.10631713
  -exchange      EXHF   =         0.00000000
  -V(xc)+E(xc)   XCENC  =        23.26977927
  PAW double counting   =       241.12739302     -241.91166405
  entropy T*S    EENTRO =        -0.00000000
  eigenvalues    EBANDS =      -110.00287286
  atomic energy  EATOM  =       197.04175453
  Solvation  Ediel_sol  =         0.00000000
  ---------------------------------------------------
  free energy    TOTEN  =       -24.66582477 eV

  energy without entropy =      -24.66582477  energy(sigma->0) =      -24.66582477


--------------------------------------------------------------------------------------------------------




--------------------------------------- Iteration      1(   7)  ---------------------------------------


    POTLOK:  cpu time    0.1435: real time    0.1435
    SETDIJ:  cpu time    0.0017: real time    0.0017
    EDDIAG:  cpu time    0.0332: real time    0.0332
  RMM-DIIS:  cpu time    0.1423: real time    0.1424
    ORTHCH:  cpu time    0.0015: real time    0.0015
       DOS:  cpu time    0.0002: real time    0.0002
    CHARGE:  cpu time    0.0174: real time    0.0174
    MIXING:  cpu time    0.0045: real time    0.0045
    --------------------------------------------
      LOOP:  cpu time    0.3442: real time    0.3443

 eigenvalue-minimisations  :    64
 total energy-change (2. order) : 0.5103593E+00  (-0.1304994E+00)
 number of electron       8.0000001 magnetization 
 augmentation part        0.1903094 magnetization 

 Broyden mixing:
  rms(total) = 0.23080E+00    rms(broyden)= 0.23075E+00
  rms(prec ) = 0.27945E+00
  weight for this iteration     100.00

 eigenvalues of (default mixing * dielectric matrix)
  average eigenvalue GAMMA=   1.8447
  1.4680  2.2214

 Free energy of the ion-electron system (eV)
  ---------------------------------------------------
  alpha Z        PSCENC =         0.24735537
  Ewald energy   TEWEN  =       129.66874709
  -Hartree energ DENC   =      -276.10373873
  -exchange      EXHF   =         0.00000000
  -V(xc)+E(xc)   XCENC  =        24.14861771
  PAW double counting   =       372.76769430     -373.59391928
  entropy T*S    EENTRO =        -0.00000000
  eigenvalues    EBANDS =       -98.33197642
  atomic energy  EATOM  =       197.04175453
  Solvation  Ediel_sol  =         0.00000000
  ---------------------------------------------------
  free energy    TOTEN  =       -24.15546543 eV

  energy without entropy =      -24.15546543  energy(sigma->0) =      -24.15546543


--------------------------------------------------------------------------------------------------------




--------------------------------------- Iteration      1(   8)  ---------------------------------------


    POTLOK:  cpu time    0.1380: real time    0.1380
    SETDIJ:  cpu time    0.0018: real time    0.0018
    EDDIAG:  cpu time    0.0331: real time    0.0331
  RMM-DIIS:  cpu time    0.1450: real time    0.1450
    ORTHCH:  cpu time    0.0015: real time    0.0015
       DOS:  cpu time    0.0002: real time    0.0002
    CHARGE:  cpu time    0.0175: real time    0.0175
    MIXING:  cpu time    0.0046: real time    0.0046
    --------------------------------------------
      LOOP:  cpu time    0.3417: real time    0.3417

 eigenvalue-minimisations  :    64
 total energy-change (2. order) : 0.1477255E+00  (-0.1626634E-01)
 number of electron       8.0000001 magnetization 
 augmentation part        0.1889111 magnetization 

 Broyden mixing:
  rms(total) = 0.22490E-01    rms(broyden)= 0.22470E-01
  rms(prec ) = 0.53360E-01
  weight for this iteration     100.00

 eigenvalues of (default mixing * dielectric matrix)
  average eigenvalue GAMMA=   1.5536
  2.2479  0.9954  1.4176

 Free energy of the ion-electron system (eV)
  ---------------------------------------------------
  alpha Z        PSCENC =         0.24735537
  Ewald energy   TEWEN  =       129.66874709
  -Hartree energ DENC   =      -281.50151336
  -exchange      EXHF   =         0.00000000
  -V(xc)+E(xc)   XCENC  =        24.68474490
  PAW double counting   =       485.30094213     -486.09468404
  entropy T*S    EENTRO =        -0.00000000
  eigenvalues    EBANDS =       -93.35508657
  atomic energy  EATOM  =       197.04175453
  Solvation  Ediel_sol  =         0.00000000
  ---------------------------------------------------
  free energy    TOTEN  =       -24.00773996 eV

  energy without entropy =      -24.00773996  energy(sigma->0) =      -24.00773996


--------------------------------------------------------------------------------------------------------




--------------------------------------- Iteration      1(   9)  ---------------------------------------


    POTLOK:  cpu time    0.1384: real time    0.1384
    SETDIJ:  cpu time    0.0018: real time    0.0018
    EDDIAG:  cpu time    0.0330: real time    0.0330
  RMM-DIIS:  cpu time    0.1442: real time    0.1442
    ORTHCH:  cpu time    0.0015: real time    0.0015
       DOS:  cpu time    0.0002: real time    0.0002
    CHARGE:  cpu time    0.0172: real time    0.0172
    MIXING:  cpu time    0.0047: real time    0.0047
    --------------------------------------------
      LOOP:  cpu time    0.3409: real time    0.3410

 eigenvalue-minimisations  :    64
 total energy-change (2. order) : 0.5743997E-02  (-0.1132511E-02)
 number of electron       8.0000001 magnetization 
 augmentation part        0.1883272 magnetization 

 Broyden mixing:
  rms(total) = 0.19805E-01    rms(broyden)= 0.19802E-01
  rms(prec ) = 0.41011E-01
  weight for this iteration     100.00

 eigenvalues of (default mixing * dielectric matrix)
  average eigenvalue GAMMA=   2.1066
  3.1457  2.8940  1.0015  1.3853

 Free energy of the ion-electron system (eV)
  ---------------------------------------------------
  alpha Z        PSCENC =         0.24735537
  Ewald energy   TEWEN  =       129.66874709
  -Hartree energ DENC   =      -282.78158524
  -exchange      EXHF   =         0.00000000
  -V(xc)+E(xc)   XCENC  =        24.75617795
  PAW double counting   =       489.20235200     -489.99873054
  entropy T*S    EENTRO =        -0.00000000
  eigenvalues    EBANDS =       -92.13806713
  atomic energy  EATOM  =       197.04175453
  Solvation  Ediel_sol  =         0.00000000
  ---------------------------------------------------
  free energy    TOTEN  =       -24.00199596 eV

  energy without entropy =      -24.00199596  energy(sigma->0) =      -24.00199596


--------------------------------------------------------------------------------------------------------




--------------------------------------- Iteration      1(  10)  ---------------------------------------


    POTLOK:  cpu time    0.1314: real time    0.1314
    SETDIJ:  cpu time    0.0020: real time    0.0020
    EDDIAG:  cpu time    0.0329: real time    0.0329
  RMM-DIIS:  cpu time    0.1455: real time    0.1456
    ORTHCH:  cpu time    0.0015: real time    0.0015
       DOS:  cpu time    0.0002: real time    0.0002
    CHARGE:  cpu time    0.0172: real time    0.0172
    MIXING:  cpu time    0.0051: real time    0.0062
    --------------------------------------------
      LOOP:  cpu time    0.3358: real time    0.3370

 eigenvalue-minimisations  :    64
 total energy-change (2. order) : 0.5964063E-02  (-0.2437372E-02)
 number of electron       8.0000001 magnetization 
 augmentation part        0.1872746 magnetization 

 Broyden mixing:
  rms(total) = 0.28354E-01    rms(broyden)= 0.28353E-01
  rms(prec ) = 0.36036E-01
  weight for this iteration     100.00

 eigenvalues of (default mixing * dielectric matrix)
  average eigenvalue GAMMA=   1.7798
  3.0714  2.4509  1.2019  1.2019  0.9727

 Free energy of the ion-electron system (eV)
  ---------------------------------------------------
  alpha Z        PSCENC =         0.24735537
  Ewald energy   TEWEN  =       129.66874709
  -Hartree energ DENC   =      -284.98961639
  -exchange      EXHF   =         0.00000000
  -V(xc)+E(xc)   XCENC  =        24.82564914
  PAW double counting   =       472.60344029     -473.40346610
  entropy T*S    EENTRO =        -0.00000000
  eigenvalues    EBANDS =       -89.98989582
  atomic energy  EATOM  =       197.04175453
  Solvation  Ediel_sol  =         0.00000000
  ---------------------------------------------------
  free energy    TOTEN  =       -23.99603190 eV

  energy without entropy =      -23.99603190  energy(sigma->0) =      -23.99603190


--------------------------------------------------------------------------------------------------------




--------------------------------------- Iteration      1(  11)  ---------------------------------------


    POTLOK:  cpu time    0.1300: real time    0.1300
    SETDIJ:  cpu time    0.0020: real time    0.0020
    EDDIAG:  cpu time    0.0331: real time    0.0331
  RMM-DIIS:  cpu time    0.1427: real time    0.1427
    ORTHCH:  cpu time    0.0016: real time    0.0016
       DOS:  cpu time    0.0002: real time    0.0002
    CHARGE:  cpu time    0.0175: real time    0.0175
    MIXING:  cpu time    0.0052: real time    0.0052
    --------------------------------------------
      LOOP:  cpu time    0.3322: real time    0.3322

 eigenvalue-minimisations  :    64
 total energy-change (2. order) :-0.4835743E-03  (-0.6973626E-03)
 number of electron       8.0000001 magnetization 
 augmentation part        0.1876054 magnetization 

 Broyden mixing:
  rms(total) = 0.67396E-02    rms(broyden)= 0.67368E-02
  rms(prec ) = 0.13084E-01
  weight for this iteration     100.00

 eigenvalues of (default mixing * dielectric matrix)
  average eigenvalue GAMMA=   2.2788
  4.8116  3.1166  2.4317  1.3048  1.0040  1.0040

 Free energy of the ion-electron system (eV)
  ---------------------------------------------------
  alpha Z        PSCENC =         0.24735537
  Ewald energy   TEWEN  =       129.66874709
  -Hartree energ DENC   =      -284.88658284
  -exchange      EXHF   =         0.00000000
  -V(xc)+E(xc)   XCENC  =        24.83948148
  PAW double counting   =       481.85160001     -482.64443814
  entropy T*S    EENTRO =        -0.00000000
  eigenvalues    EBANDS =       -90.11443297
  atomic energy  EATOM  =       197.04175453
  Solvation  Ediel_sol  =         0.00000000
  ---------------------------------------------------
  free energy    TOTEN  =       -23.99651547 eV

  energy without entropy =      -23.99651547  energy(sigma->0) =      -23.99651547


--------------------------------------------------------------------------------------------------------




--------------------------------------- Iteration      1(  12)  ---------------------------------------


    POTLOK:  cpu time    0.1249: real time    0.1249
    SETDIJ:  cpu time    0.0019: real time    0.0019
    EDDIAG:  cpu time    0.0324: real time    0.0324
  RMM-DIIS:  cpu time    0.1427: real time    0.1427
    ORTHCH:  cpu time    0.0015: real time    0.0015
       DOS:  cpu time    0.0002: real time    0.0002
    CHARGE:  cpu time    0.0171: real time    0.0171
    MIXING:  cpu time    0.0051: real time    0.0051
    --------------------------------------------
      LOOP:  cpu time    0.3258: real time    0.3258

 eigenvalue-minimisations  :    64
 total energy-change (2. order) :-0.9980525E-02  (-0.4362809E-03)
 number of electron       8.0000001 magnetization 
 augmentation part        0.1878734 magnetization 

 Broyden mixing:
  rms(total) = 0.13072E-01    rms(broyden)= 0.13071E-01
  rms(prec ) = 0.17069E-01
  weight for this iteration     100.00

 eigenvalues of (default mixing * dielectric matrix)
  average eigenvalue GAMMA=   2.0193
  4.8107  2.9351  2.4379  1.2578  0.9933  0.9933  0.7072

 Free energy of the ion-electron system (eV)
  ---------------------------------------------------
  alpha Z        PSCENC =         0.24735537
  Ewald energy   TEWEN  =       129.66874709
  -Hartree energ DENC   =      -285.06545569
  -exchange      EXHF   =         0.00000000
  -V(xc)+E(xc)   XCENC  =        24.83152563
  PAW double counting   =       479.33391334     -480.12494451
  entropy T*S    EENTRO =        -0.00000000
  eigenvalues    EBANDS =       -89.93939175
  atomic energy  EATOM  =       197.04175453
  Solvation  Ediel_sol  =         0.00000000
  ---------------------------------------------------
  free energy    TOTEN  =       -24.00649600 eV

  energy without entropy =      -24.00649600  energy(sigma->0) =      -24.00649600


--------------------------------------------------------------------------------------------------------




--------------------------------------- Iteration      1(  13)  ---------------------------------------


    POTLOK:  cpu time    0.1242: real time    0.1242
    SETDIJ:  cpu time    0.0017: real time    0.0017
    EDDIAG:  cpu time    0.0321: real time    0.0321
  RMM-DIIS:  cpu time    0.1431: real time    0.1432
    ORTHCH:  cpu time    0.0017: real time    0.0017
       DOS:  cpu time    0.0002: real time    0.0002
    CHARGE:  cpu time    0.0172: real time    0.0172
    MIXING:  cpu time    0.0054: real time    0.0054
    --------------------------------------------
      LOOP:  cpu time    0.3254: real time    0.3255

 eigenvalue-minimisations  :    64
 total energy-change (2. order) :-0.3712899E-03  (-0.8170647E-04)
 number of electron       8.0000001 magnetization 
 augmentation part        0.1876573 magnetization 

 Broyden mixing:
  rms(total) = 0.61441E-02    rms(broyden)= 0.61440E-02
  rms(prec ) = 0.80976E-02
  weight for this iteration     100.00

 eigenvalues of (default mixing * dielectric matrix)
  average eigenvalue GAMMA=   2.4032
  6.0723  3.9827  2.5328  2.3192  1.2232  1.2232  0.9974  0.8746

 Free energy of the ion-electron system (eV)
  ---------------------------------------------------
  alpha Z        PSCENC =         0.24735537
  Ewald energy   TEWEN  =       129.66874709
  -Hartree energ DENC   =      -285.25079349
  -exchange      EXHF   =         0.00000000
  -V(xc)+E(xc)   XCENC  =        24.83718927
  PAW double counting   =       479.18966751     -479.98303221
  entropy T*S    EENTRO =        -0.00000000
  eigenvalues    EBANDS =       -89.75775536
  atomic energy  EATOM  =       197.04175453
  Solvation  Ediel_sol  =         0.00000000
  ---------------------------------------------------
  free energy    TOTEN  =       -24.00686729 eV

  energy without entropy =      -24.00686729  energy(sigma->0) =      -24.00686729


--------------------------------------------------------------------------------------------------------




--------------------------------------- Iteration      1(  14)  ---------------------------------------


    POTLOK:  cpu time    0.1209: real time    0.1209
    SETDIJ:  cpu time    0.0018: real time    0.0018
    EDDIAG:  cpu time    0.0319: real time    0.0319
  RMM-DIIS:  cpu time    0.1447: real time    0.1447
    ORTHCH:  cpu time    0.0015: real time    0.0015
       DOS:  cpu time    0.0002: real time    0.0002
    CHARGE:  cpu time    0.0170: real time    0.0170
    MIXING:  cpu time    0.0056: real time    0.0056
    --------------------------------------------
      LOOP:  cpu time    0.3236: real time    0.3236

 eigenvalue-minimisations  :    64
 total energy-change (2. order) :-0.2812491E-02  (-0.1997784E-03)
 number of electron       8.0000001 magnetization 
 augmentation part        0.1874452 magnetization 

 Broyden mixing:
  rms(total) = 0.43650E-02    rms(broyden)= 0.43632E-02
  rms(prec ) = 0.57050E-02
  weight for this iteration     100.00

 eigenvalues of (default mixing * dielectric matrix)
  average eigenvalue GAMMA=   2.3295
  6.4864  4.1532  2.4507  2.4507  1.2053  1.2053  0.9293  0.9888  1.0956

 Free energy of the ion-electron system (eV)
  ---------------------------------------------------
  alpha Z        PSCENC =         0.24735537
  Ewald energy   TEWEN  =       129.66874709
  -Hartree energ DENC   =      -285.30737261
  -exchange      EXHF   =         0.00000000
  -V(xc)+E(xc)   XCENC  =        24.82936196
  PAW double counting   =       478.21094441     -479.00648064
  entropy T*S    EENTRO =        -0.00000000
  eigenvalues    EBANDS =       -89.69398989
  atomic energy  EATOM  =       197.04175453
  Solvation  Ediel_sol  =         0.00000000
  ---------------------------------------------------
  free energy    TOTEN  =       -24.00967978 eV

  energy without entropy =      -24.00967978  energy(sigma->0) =      -24.00967978


--------------------------------------------------------------------------------------------------------




--------------------------------------- Iteration      1(  15)  ---------------------------------------


    POTLOK:  cpu time    0.1214: real time    0.1214
    SETDIJ:  cpu time    0.0017: real time    0.0017
    EDDIAG:  cpu time    0.0320: real time    0.0320
  RMM-DIIS:  cpu time    0.1426: real time    0.1426
    ORTHCH:  cpu time    0.0015: real time    0.0015
       DOS:  cpu time    0.0002: real time    0.0002
    CHARGE:  cpu time    0.0172: real time    0.0172
    MIXING:  cpu time    0.0058: real time    0.0058
    --------------------------------------------
      LOOP:  cpu time    0.3224: real time    0.3224

 eigenvalue-minimisations  :    64
 total energy-change (2. order) :-0.2112007E-03  (-0.1394958E-04)
 number of electron       8.0000001 magnetization 
 augmentation part        0.1874578 magnetization 

 Broyden mixing:
  rms(total) = 0.15036E-02    rms(broyden)= 0.15035E-02
  rms(prec ) = 0.19420E-02
  weight for this iteration     100.00

 eigenvalues of (default mixing * dielectric matrix)
  average eigenvalue GAMMA=   2.5555
  7.5159  4.9203  3.0471  2.5361  2.0619  1.2924  1.2924  1.0007  0.9956  0.8927

 Free energy of the ion-electron system (eV)
  ---------------------------------------------------
  alpha Z        PSCENC =         0.24735537
  Ewald energy   TEWEN  =       129.66874709
  -Hartree energ DENC   =      -285.22724785
  -exchange      EXHF   =         0.00000000
  -V(xc)+E(xc)   XCENC  =        24.82596139
  PAW double counting   =       478.33198391     -479.12634255
  entropy T*S    EENTRO =        -0.00000000
  eigenvalues    EBANDS =       -89.77210286
  atomic energy  EATOM  =       197.04175453
  Solvation  Ediel_sol  =         0.00000000
  ---------------------------------------------------
  free energy    TOTEN  =       -24.00989098 eV

  energy without entropy =      -24.00989098  energy(sigma->0) =      -24.00989098


--------------------------------------------------------------------------------------------------------




--------------------------------------- Iteration      1(  16)  ---------------------------------------


    POTLOK:  cpu time    0.1240: real time    0.1240
    SETDIJ:  cpu time    0.0017: real time    0.0017
    EDDIAG:  cpu time    0.0320: real time    0.0320
  RMM-DIIS:  cpu time    0.1446: real time    0.1446
    ORTHCH:  cpu time    0.0014: real time    0.0014
       DOS:  cpu time    0.0002: real time    0.0002
    CHARGE:  cpu time    0.0169: real time    0.0169
    MIXING:  cpu time    0.0060: real time    0.0060
    --------------------------------------------
      LOOP:  cpu time    0.3269: real time    0.3270

 eigenvalue-minimisations  :    64
 total energy-change (2. order) :-0.2072244E-03  (-0.1461603E-04)
 number of electron       8.0000001 magnetization 
 augmentation part        0.1875302 magnetization 

 Broyden mixing:
  rms(total) = 0.13010E-02    rms(broyden)= 0.13005E-02
  rms(prec ) = 0.17450E-02
  weight for this iteration     100.00

 eigenvalues of (default mixing * dielectric matrix)
  average eigenvalue GAMMA=   2.4635
  7.6375  4.7784  3.4548  2.3851  2.2902  1.2719  1.2719  0.9221  0.9550  1.0660
  1.0660

 Free energy of the ion-electron system (eV)
  ---------------------------------------------------
  alpha Z        PSCENC =         0.24735537
  Ewald energy   TEWEN  =       129.66874709
  -Hartree energ DENC   =      -285.20578056
  -exchange      EXHF   =         0.00000000
  -V(xc)+E(xc)   XCENC  =        24.82596080
  PAW double counting   =       478.44220102     -479.23594038
  entropy T*S    EENTRO =        -0.00000000
  eigenvalues    EBANDS =       -89.79439607
  atomic energy  EATOM  =       197.04175453
  Solvation  Ediel_sol  =         0.00000000
  ---------------------------------------------------
  free energy    TOTEN  =       -24.01009821 eV

  energy without entropy =      -24.01009821  energy(sigma->0) =      -24.01009821


--------------------------------------------------------------------------------------------------------




--------------------------------------- Iteration      1(  17)  ---------------------------------------


    POTLOK:  cpu time    0.1244: real time    0.1244
    SETDIJ:  cpu time    0.0017: real time    0.0017
    EDDIAG:  cpu time    0.0319: real time    0.0319
  RMM-DIIS:  cpu time    0.1437: real time    0.1437
    ORTHCH:  cpu time    0.0017: real time    0.0017
       DOS:  cpu time    0.0002: real time    0.0002
    CHARGE:  cpu time    0.0169: real time    0.0169
    MIXING:  cpu time    0.0061: real time    0.0061
    --------------------------------------------
      LOOP:  cpu time    0.3266: real time    0.3266

 eigenvalue-minimisations  :    64
 total energy-change (2. order) :-0.1772678E-04  (-0.3295843E-05)
 number of electron       8.0000001 magnetization 
 augmentation part        0.1874925 magnetization 

 Broyden mixing:
  rms(total) = 0.18347E-03    rms(broyden)= 0.18341E-03
  rms(prec ) = 0.25483E-03
  weight for this iteration     100.00

 eigenvalues of (default mixing * dielectric matrix)
  average eigenvalue GAMMA=   2.5661
  8.3036  5.1458  3.9378  2.5342  2.5342  1.8774  1.3192  1.3192  1.0158  0.9640
  0.9640  0.8782

 Free energy of the ion-electron system (eV)
  ---------------------------------------------------
  alpha Z        PSCENC =         0.24735537
  Ewald energy   TEWEN  =       129.66874709
  -Hartree energ DENC   =      -285.25340523
  -exchange      EXHF   =         0.00000000
  -V(xc)+E(xc)   XCENC  =        24.82824949
  PAW double counting   =       478.45627689     -479.25045099
  entropy T*S    EENTRO =        -0.00000000
  eigenvalues    EBANDS =       -89.74864308
  atomic energy  EATOM  =       197.04175453
  Solvation  Ediel_sol  =         0.00000000
  ---------------------------------------------------
  free energy    TOTEN  =       -24.01011593 eV

  energy without entropy =      -24.01011593  energy(sigma->0) =      -24.01011593


--------------------------------------------------------------------------------------------------------




--------------------------------------- Iteration      1(  18)  ---------------------------------------


    POTLOK:  cpu time    0.1280: real time    0.1281
    SETDIJ:  cpu time    0.0018: real time    0.0018
    EDDIAG:  cpu time    0.0324: real time    0.0324
  RMM-DIIS:  cpu time    0.1149: real time    0.1149
    ORTHCH:  cpu time    0.0014: real time    0.0014
       DOS:  cpu time    0.0002: real time    0.0002
    CHARGE:  cpu time    0.0170: real time    0.0170
    MIXING:  cpu time    0.0064: real time    0.0064
    --------------------------------------------
      LOOP:  cpu time    0.3021: real time    0.3021

 eigenvalue-minimisations  :    48
 total energy-change (2. order) :-0.1632111E-04  (-0.1227932E-06)
 number of electron       8.0000001 magnetization 
 augmentation part        0.1874896 magnetization 

 Broyden mixing:
  rms(total) = 0.66068E-04    rms(broyden)= 0.66003E-04
  rms(prec ) = 0.99789E-04
  weight for this iteration     100.00

 eigenvalues of (default mixing * dielectric matrix)
  average eigenvalue GAMMA=   2.5536
  8.3531  5.3441  3.7403  3.1442  2.4716  2.1860  1.3113  1.3113  1.3807  0.8888
  1.0959  0.9849  0.9849

 Free energy of the ion-electron system (eV)
  ---------------------------------------------------
  alpha Z        PSCENC =         0.24735537
  Ewald energy   TEWEN  =       129.66874709
  -Hartree energ DENC   =      -285.24653347
  -exchange      EXHF   =         0.00000000
  -V(xc)+E(xc)   XCENC  =        24.82770748
  PAW double counting   =       478.35849366     -479.15265810
  entropy T*S    EENTRO =        -0.00000000
  eigenvalues    EBANDS =       -89.75499881
  atomic energy  EATOM  =       197.04175453
  Solvation  Ediel_sol  =         0.00000000
  ---------------------------------------------------
  free energy    TOTEN  =       -24.01013225 eV

  energy without entropy =      -24.01013225  energy(sigma->0) =      -24.01013225


--------------------------------------------------------------------------------------------------------




--------------------------------------- Iteration      1(  19)  ---------------------------------------


    POTLOK:  cpu time    0.1291: real time    0.1291
    SETDIJ:  cpu time    0.0016: real time    0.0016
    EDDIAG:  cpu time    0.0317: real time    0.0317
  RMM-DIIS:  cpu time    0.1155: real time    0.1155
    ORTHCH:  cpu time    0.0014: real time    0.0014
       DOS:  cpu time    0.0002: real time    0.0002
    CHARGE:  cpu time    0.0170: real time    0.0170
    MIXING:  cpu time    0.0066: real time    0.0066
    --------------------------------------------
      LOOP:  cpu time    0.3032: real time    0.3032

 eigenvalue-minimisations  :    48
 total energy-change (2. order) :-0.2631946E-05  (-0.4187119E-07)
 number of electron       8.0000001 magnetization 
 augmentation part        0.1874882 magnetization 

 Broyden mixing:
  rms(total) = 0.86058E-04    rms(broyden)= 0.86033E-04
  rms(prec ) = 0.11449E-03
  weight for this iteration     100.00

 eigenvalues of (default mixing * dielectric matrix)
  average eigenvalue GAMMA=   2.5255
  8.3820  5.4678  3.9470  3.0405  2.6336  2.4569  2.0042  1.3106  1.3106  1.0190
  0.9814  0.9814  0.9107  0.9107

 Free energy of the ion-electron system (eV)
  ---------------------------------------------------
  alpha Z        PSCENC =         0.24735537
  Ewald energy   TEWEN  =       129.66874709
  -Hartree energ DENC   =      -285.24433796
  -exchange      EXHF   =         0.00000000
  -V(xc)+E(xc)   XCENC  =        24.82750186
  PAW double counting   =       478.34373842     -479.13790748
  entropy T*S    EENTRO =        -0.00000000
  eigenvalues    EBANDS =       -89.75698671
  atomic energy  EATOM  =       197.04175453
  Solvation  Ediel_sol  =         0.00000000
  ---------------------------------------------------
  free energy    TOTEN  =       -24.01013489 eV

  energy without entropy =      -24.01013489  energy(sigma->0) =      -24.01013489


--------------------------------------------------------------------------------------------------------




--------------------------------------- Iteration      1(  20)  ---------------------------------------


    POTLOK:  cpu time    0.1309: real time    0.1309
    SETDIJ:  cpu time    0.0020: real time    0.0020
    EDDIAG:  cpu time    0.0314: real time    0.0314
  RMM-DIIS:  cpu time    0.1127: real time    0.1127
    ORTHCH:  cpu time    0.0018: real time    0.0018
       DOS:  cpu time    0.0002: real time    0.0002
    CHARGE:  cpu time    0.0172: real time    0.0172
    MIXING:  cpu time    0.0069: real time    0.0069
    --------------------------------------------
      LOOP:  cpu time    0.3032: real time    0.3032

 eigenvalue-minimisations  :    48
 total energy-change (2. order) :-0.1455348E-05  (-0.1089365E-07)
 number of electron       8.0000001 magnetization 
 augmentation part        0.1874889 magnetization 

 Broyden mixing:
  rms(total) = 0.27457E-04    rms(broyden)= 0.27450E-04
  rms(prec ) = 0.33339E-04
  weight for this iteration     100.00

 eigenvalues of (default mixing * dielectric matrix)
  average eigenvalue GAMMA=   2.4709
  8.4118  5.5214  4.0439  3.6339  2.4549  2.4549  1.9948  1.3153  1.3153  1.0275
  1.0275  0.8848  0.9681  0.9681  1.0414

 Free energy of the ion-electron system (eV)
  ---------------------------------------------------
  alpha Z        PSCENC =         0.24735537
  Ewald energy   TEWEN  =       129.66874709
  -Hartree energ DENC   =      -285.24191798
  -exchange      EXHF   =         0.00000000
  -V(xc)+E(xc)   XCENC  =        24.82738654
  PAW double counting   =       478.35234702     -479.14647999
  entropy T*S    EENTRO =        -0.00000000
  eigenvalues    EBANDS =       -89.75932892
  atomic energy  EATOM  =       197.04175453
  Solvation  Ediel_sol  =         0.00000000
  ---------------------------------------------------
  free energy    TOTEN  =       -24.01013634 eV

  energy without entropy =      -24.01013634  energy(sigma->0) =      -24.01013634


--------------------------------------------------------------------------------------------------------




--------------------------------------- Iteration      1(  21)  ---------------------------------------


    POTLOK:  cpu time    0.1341: real time    0.1341
    SETDIJ:  cpu time    0.0018: real time    0.0018
    EDDIAG:  cpu time    0.0321: real time    0.0321
  RMM-DIIS:  cpu time    0.0974: real time    0.0974
    ORTHCH:  cpu time    0.0014: real time    0.0014
       DOS:  cpu time    0.0002: real time    0.0002
    --------------------------------------------
      LOOP:  cpu time    0.2668: real time    0.2668

 eigenvalue-minimisations  :    32
 total energy-change (2. order) :-0.2586126E-06  ( 0.0000000E+00)
 number of electron       8.0000001 magnetization 
 augmentation part        0.1874889 magnetization 

 Free energy of the ion-electron system (eV)
  ---------------------------------------------------
  alpha Z        PSCENC =         0.24735537
  Ewald energy   TEWEN  =       129.66874709
  -Hartree energ DENC   =      -285.24158969
  -exchange      EXHF   =         0.00000000
  -V(xc)+E(xc)   XCENC  =        24.82737274
  PAW double counting   =       478.35375433     -479.14788494
  entropy T*S    EENTRO =        -0.00000000
  eigenvalues    EBANDS =       -89.75964602
  atomic energy  EATOM  =       197.04175453
  Solvation  Ediel_sol  =         0.00000000
  ---------------------------------------------------
  free energy    TOTEN  =       -24.01013660 eV

  energy without entropy =      -24.01013660  energy(sigma->0) =      -24.01013660


--------------------------------------------------------------------------------------------------------




 average (electrostatic) potential at core
  the test charge radii are     0.5201  0.6991
  (the norm of the test charge is              1.0000)
       1 -41.4306       2 -41.4600       3 -41.7246       4 -41.5549       5 -57.9123
 
 
 
 E-fermi :  -8.2531     XC(G=0):  -0.7109     alpha+bet : -0.2151


 k-point     1 :       0.2500    0.2500    0.2500
  band No.  band energies     occupation 
      1     -16.9409      2.00000
      2      -9.4247      2.00000
      3      -9.2984      2.00000
      4      -9.2157      2.00000
      5      -0.2981      0.00000
      6       0.5729      0.00000
      7       0.6686      0.00000
      8       0.6983      0.00000

 k-point     2 :      -0.2500    0.2500    0.2500
  band No.  band energies     occupation 
      1     -16.9409      2.00000
      2      -9.4248      2.00000
      3      -9.2984      2.00000
      4      -9.2158      2.00000
      5      -0.3074      0.00000
      6       0.5837      0.00000
      7       0.6919      0.00000
      8       0.7234      0.00000

 k-point     3 :       0.2500   -0.2500    0.2500
  band No.  band energies     occupation 
      1     -16.9410      2.00000
      2      -9.4248      2.00000
      3      -9.2984      2.00000
      4      -9.2157      2.00000
      5      -0.3029      0.00000
      6       0.5742      0.00000
      7       0.6782      0.00000
      8       0.7170      0.00000

 k-point     4 :      -0.2500   -0.2500    0.2500
  band No.  band energies     occupation 
      1     -16.9409      2.00000
      2      -9.4247      2.00000
      3      -9.2984      2.00000
      4      -9.2158      2.00000
      5      -0.3030      0.00000
      6       0.5822      0.00000
      7       0.6831      0.00000
      8       0.7076      0.00000


--------------------------------------------------------------------------------------------------------


 soft charge-density along one line, spin component           1
         0         1         2         3         4         5         6         7         8         9
 total charge-density along one line
 
 pseudopotential strength for first ion, spin component:           1
 -2.340  -4.033  -0.001  -0.001   0.001
 -4.033  -6.862  -0.003  -0.004   0.002
 -0.001  -0.003  -0.338   0.002  -0.001
 -0.001  -0.004   0.002  -0.336  -0.001
  0.001   0.002  -0.001  -0.001  -0.339
 total augmentation occupancy for first ion, spin component:           1
  3.518  -0.634   0.229   0.324  -0.143
 -0.634   0.128  -0.043  -0.060   0.026
  0.229  -0.043   0.021   0.018  -0.008
  0.324  -0.060   0.018   0.034  -0.011
 -0.143   0.026  -0.008  -0.011   0.013


------------------------ aborting loop because EDIFF is reached ----------------------------------------


    CHARGE:  cpu time    0.0167: real time    0.0167
    FORLOC:  cpu time    0.0130: real time    0.0130
    FORNL :  cpu time    0.0202: real time    0.0202
    STRESS:  cpu time    0.1518: real time    0.1525
    FORCOR:  cpu time    0.1308: real time    0.1308
    FORHAR:  cpu time    0.0403: real time    0.0404
    MIXING:  cpu time    0.0067: real time    0.0067
    OFIELD:  cpu time    0.0000: real time    0.0001

  FORCE on cell =-STRESS in cart. coord.  units (eV):
  Direction    XX          YY          ZZ          XY          YZ          ZX
  --------------------------------------------------------------------------------------
  Alpha Z     0.24736     0.24736     0.24736
  Ewald      42.44010    45.19205    42.03657    -0.41024    -1.06502    -1.73947
  Hartree    95.16720    95.80045    94.27393    -0.68376    -0.11500    -0.79554
  E(xc)     -27.30487   -27.30407   -27.30105    -0.00627    -0.00226    -0.00913
  Local    -196.57358  -199.15788  -195.15736     1.32676     0.85396     2.34506
  n-local   -16.07725   -16.14258   -16.05612    -0.04875     0.02730    -0.01671
  augment     0.11496     0.10650     0.11424    -0.00320     0.00309     0.00099
  Kinetic   101.80627   101.74203   101.55464     0.32221     0.09450     0.45373
  Fock        0.00000     0.00000     0.00000     0.00000     0.00000     0.00000
  -------------------------------------------------------------------------------------
  Total      -0.17982     0.48386    -0.28780     0.49674    -0.20343     0.23894
  in kB      -0.29417     0.79157    -0.47083     0.81264    -0.33279     0.39088
  external pressure =        0.01 kB  Pullay stress =        0.00 kB

  kinetic pressure (ideal gas correction) =      0.00 kB
  total pressure  =      0.01 kB
  Total+kin.    -0.294       0.792      -0.471       0.813      -0.333       0.391

 VOLUME and BASIS-vectors are now :
 -----------------------------------------------------------------------------
  energy-cutoff  :      400.00
  volume of cell :      979.36
      direct lattice vectors                 reciprocal lattice vectors
     9.922517592  0.000000000  0.000000000     0.100780874  0.002492757  0.002383030
    -0.244058783  9.867170988  0.000000000     0.000000000  0.101346171 -0.000027309
    -0.236593651  0.002695432 10.002978495     0.000000000  0.000000000  0.099970224

  length of vectors
     9.922517592  9.870188853 10.005776462     0.100839860  0.101346175  0.099970224


 FORCES acting on ions
    electron-ion (+dipol)            ewald-force                    non-local-force                 convergence-correction
 -----------------------------------------------------------------------------------------------
   -.178E+02 0.287E+02 0.404E+02   0.195E+02 -.315E+02 -.444E+02   -.183E+01 0.293E+01 0.414E+01   -.148E-04 0.243E-04 0.262E-04
   0.525E+02 -.604E+01 0.347E+01   -.579E+02 0.660E+01 -.390E+01   0.542E+01 -.642E+00 0.336E+00   0.438E-04 -.564E-05 0.150E-05
   -.232E+02 -.490E+02 0.142E+01   0.262E+02 0.553E+02 -.155E+01   -.252E+01 -.539E+01 0.172E+00   -.169E-04 -.395E-04 0.244E-05
   -.112E+02 0.248E+02 -.459E+02   0.125E+02 -.275E+02 0.510E+02   -.116E+01 0.262E+01 -.485E+01   -.752E-05 0.220E-04 -.293E-04
   0.118E+00 0.239E+01 0.996E+00   -.305E+00 -.290E+01 -.121E+01   -.330E+00 -.285E+00 -.159E+00   -.157E-05 0.589E-05 0.300E-05
 -----------------------------------------------------------------------------------------------
   0.411E+00 0.768E+00 0.362E+00   0.000E+00 0.355E-14 0.711E-14   -.412E+00 -.767E+00 -.362E+00   0.301E-05 0.709E-05 0.386E-05
 
 
 POSITION                                       TOTAL-FORCE (eV/Angst)
 -----------------------------------------------------------------------------------
      5.15475      4.01327      3.60976        -0.140899      0.085024      0.170637
      3.69394      4.74063      4.38608         0.002827     -0.077702     -0.094412
      5.23650      5.57979      4.42953         0.509045      0.912054      0.038703
      5.00937      4.10994      5.39373         0.145941     -0.121170      0.254714
      4.78230      4.61439      4.45738        -0.517303     -0.797517     -0.369698
 -----------------------------------------------------------------------------------
    total drift:                               -0.000388      0.000690     -0.000056


--------------------------------------------------------------------------------------------------------



  FREE ENERGIE OF THE ION-ELECTRON SYSTEM (eV)
  ---------------------------------------------------
  free  energy   TOTEN  =       -24.01013660 eV

  energy  without entropy=      -24.01013660  energy(sigma->0) =      -24.01013660
 


--------------------------------------------------------------------------------------------------------


    POTLOK:  cpu time    0.1350: real time    0.1350


--------------------------------------------------------------------------------------------------------


 stress matrix after NEB project (eV)
     -0.17982      0.49674      0.23894
      0.49674      0.48386     -0.20343
      0.23894     -0.20343     -0.28780
  FORCES: max atom, RMS     1.045212    0.678940
  FORCE total and by dimension    1.518156    0.912054
  Stress total and by dimension    1.019673    0.496740
           RANDOM_SEED =         581367997                0                0
           RANDOM_SEED =         581367997               30                0
   IONSTEP:  cpu time    0.0036: real time    0.0070

  ENERGY OF THE ELECTRON-ION-THERMOSTAT SYSTEM (eV)
  ---------------------------------------------------
% ion-electron   TOTEN  =       -24.010137  see above
  kinetic energy EKIN   =         0.000411
  kin. lattice  EKIN_LAT=         0.000000  (temperature    0.80 K)
  nose potential ES     =         0.000000
  nose kinetic   EPS    =         0.000000
  ---------------------------------------------------
  total energy   ETOTAL =       -24.009725 eV

  maximum distance moved by ions :      0.26E-03

    WAVPRE:  cpu time    0.0408: real time    0.0409
    FEWALD:  cpu time    0.0003: real time    0.0003
    ORTHCH:  cpu time    0.0083: real time    0.0083
     LOOP+:  cpu time    6.8335: real time    6.8892


--------------------------------------- Iteration      2(   1)  ---------------------------------------


    POTLOK:  cpu time    0.1341: real time    0.1341
    SETDIJ:  cpu time    0.0017: real time    0.0017
     EDDAV:  cpu time    0.1720: real time    0.1720
       DOS:  cpu time    0.0002: real time    0.0002
    CHARGE:  cpu time    0.0166: real time    0.0166
    MIXING:  cpu time    0.0065: real time    0.0065
    --------------------------------------------
      LOOP:  cpu time    0.3312: real time    0.3312

 eigenvalue-minimisations  :    88
 total energy-change (2. order) :-0.3128162E-02  (-0.3667218E-03)
 number of electron       8.0000001 magnetization 
 augmentation part        0.1872134 magnetization 

 Broyden mixing:
  rms(total) = 0.31560E-02    rms(broyden)= 0.31540E-02
  rms(prec ) = 0.38466E-02
  weight for this iteration     100.00

 Free energy of the ion-electron system (eV)
  ---------------------------------------------------
  alpha Z        PSCENC =         0.24735537
  Ewald energy   TEWEN  =       129.50307009
  -Hartree energ DENC   =      -285.14955676
  -exchange      EXHF   =         0.00000000
  -V(xc)+E(xc)   XCENC  =        24.82269214
  PAW double counting   =       478.35957710     -479.15370106
  entropy T*S    EENTRO =        -0.00000000
  eigenvalues    EBANDS =       -89.68445590
  atomic energy  EATOM  =       197.04175453
  Solvation  Ediel_sol  =         0.00000000
  ---------------------------------------------------
  free energy    TOTEN  =       -24.01326450 eV

  energy without entropy =      -24.01326450  energy(sigma->0) =      -24.01326450


--------------------------------------------------------------------------------------------------------




--------------------------------------- Iteration      2(   2)  ---------------------------------------


    POTLOK:  cpu time    0.1340: real time    0.1340
    SETDIJ:  cpu time    0.0017: real time    0.0017
    EDDIAG:  cpu time    0.0313: real time    0.0313
  RMM-DIIS:  cpu time    0.1438: real time    0.1438
    ORTHCH:  cpu time    0.0014: real time    0.0014
       DOS:  cpu time    0.0002: real time    0.0002
    CHARGE:  cpu time    0.0169: real time    0.0169
    MIXING:  cpu time    0.0043: real time    0.0043
    --------------------------------------------
      LOOP:  cpu time    0.3336: real time    0.3336

 eigenvalue-minimisations  :    64
 total energy-change (2. order) : 0.1505567E-04  (-0.8227965E-05)
 number of electron       8.0000001 magnetization 
 augmentation part        0.1872559 magnetization 

 Broyden mixing:
  rms(total) = 0.16469E-02    rms(broyden)= 0.16466E-02
  rms(prec ) = 0.19386E-02
  weight for this iteration     100.00

 eigenvalues of (default mixing * dielectric matrix)
  average eigenvalue GAMMA=   1.7790
  1.7790

 Free energy of the ion-electron system (eV)
  ---------------------------------------------------
  alpha Z        PSCENC =         0.24735537
  Ewald energy   TEWEN  =       129.50307009
  -Hartree energ DENC   =      -285.11442904
  -exchange      EXHF   =         0.00000000
  -V(xc)+E(xc)   XCENC  =        24.82079262
  PAW double counting   =       477.74993456     -478.54362779
  entropy T*S    EENTRO =        -0.00000000
  eigenvalues    EBANDS =       -89.71809980
  atomic energy  EATOM  =       197.04175453
  Solvation  Ediel_sol  =         0.00000000
  ---------------------------------------------------
  free energy    TOTEN  =       -24.01324945 eV

  energy without entropy =      -24.01324945  energy(sigma->0) =      -24.01324945


--------------------------------------------------------------------------------------------------------




--------------------------------------- Iteration      2(   3)  ---------------------------------------


    POTLOK:  cpu time    0.1287: real time    0.1287
    SETDIJ:  cpu time    0.0018: real time    0.0018
    EDDIAG:  cpu time    0.0311: real time    0.0311
  RMM-DIIS:  cpu time    0.1438: real time    0.1438
    ORTHCH:  cpu time    0.0015: real time    0.0015
       DOS:  cpu time    0.0002: real time    0.0002
    CHARGE:  cpu time    0.0167: real time    0.0167
    MIXING:  cpu time    0.0045: real time    0.0045
    --------------------------------------------
      LOOP:  cpu time    0.3283: real time    0.3283

 eigenvalue-minimisations  :    64
 total energy-change (2. order) : 0.1992211E-05  (-0.2583917E-05)
 number of electron       8.0000001 magnetization 
 augmentation part        0.1872919 magnetization 

 Broyden mixing:
  rms(total) = 0.50191E-03    rms(broyden)= 0.50165E-03
  rms(prec ) = 0.60746E-03
  weight for this iteration     100.00

 eigenvalues of (default mixing * dielectric matrix)
  average eigenvalue GAMMA=   1.5532
  1.1721  1.9343

 Free energy of the ion-electron system (eV)
  ---------------------------------------------------
  alpha Z        PSCENC =         0.24735537
  Ewald energy   TEWEN  =       129.50307009
  -Hartree energ DENC   =      -285.09414241
  -exchange      EXHF   =         0.00000000
  -V(xc)+E(xc)   XCENC  =        24.81962768
  PAW double counting   =       477.35638852     -478.14981073
  entropy T*S    EENTRO =        -0.00000000
  eigenvalues    EBANDS =       -89.73749051
  atomic energy  EATOM  =       197.04175453
  Solvation  Ediel_sol  =         0.00000000
  ---------------------------------------------------
  free energy    TOTEN  =       -24.01324745 eV

  energy without entropy =      -24.01324745  energy(sigma->0) =      -24.01324745


--------------------------------------------------------------------------------------------------------




--------------------------------------- Iteration      2(   4)  ---------------------------------------


    POTLOK:  cpu time    0.1284: real time    0.1284
    SETDIJ:  cpu time    0.0017: real time    0.0017
    EDDIAG:  cpu time    0.0318: real time    0.0318
  RMM-DIIS:  cpu time    0.1157: real time    0.1157
    ORTHCH:  cpu time    0.0014: real time    0.0014
       DOS:  cpu time    0.0002: real time    0.0001
    --------------------------------------------
      LOOP:  cpu time    0.2790: real time    0.2791

 eigenvalue-minimisations  :    48
 total energy-change (2. order) : 0.1099767E-06  (-0.7855606E-07)
 number of electron       8.0000001 magnetization 
 augmentation part        0.1872919 magnetization 

 Free energy of the ion-electron system (eV)
  ---------------------------------------------------
  alpha Z        PSCENC =         0.24735537
  Ewald energy   TEWEN  =       129.50307009
  -Hartree energ DENC   =      -285.09990839
  -exchange      EXHF   =         0.00000000
  -V(xc)+E(xc)   XCENC  =        24.81984432
  PAW double counting   =       477.31138924     -478.10488438
  entropy T*S    EENTRO =        -0.00000000
  eigenvalues    EBANDS =       -89.73186814
  atomic energy  EATOM  =       197.04175453
  Solvation  Ediel_sol  =         0.00000000
  ---------------------------------------------------
  free energy    TOTEN  =       -24.01324734 eV

  energy without entropy =      -24.01324734  energy(sigma->0) =      -24.01324734


--------------------------------------------------------------------------------------------------------




 average (electrostatic) potential at core
  the test charge radii are     0.5201  0.6991
  (the norm of the test charge is              1.0000)
       1 -41.4359       2 -41.4616       3 -41.7013       4 -41.5494       5 -57.9164
 
 
 
 E-fermi :  -8.2428     XC(G=0):  -0.6894     alpha+bet : -0.2151


 k-point     1 :       0.2500    0.2500    0.2500
  band No.  band energies     occupation 
      1     -16.9352      2.00000
      2      -9.4147      2.00000
      3      -9.3003      2.00000
      4      -9.2156      2.00000
      5      -0.2917      0.00000
      6       0.5916      0.00000
      7       0.6823      0.00000
      8       0.7133      0.00000

 k-point     2 :      -0.2500    0.2500    0.2500
  band No.  band energies     occupation 
      1     -16.9352      2.00000
      2      -9.4148      2.00000
      3      -9.3003      2.00000
      4      -9.2157      2.00000
      5      -0.3008      0.00000
      6       0.6035      0.00000
      7       0.7038      0.00000
      8       0.7384      0.00000

 k-point     3 :       0.2500   -0.2500    0.2500
  band No.  band energies     occupation 
      1     -16.9352      2.00000
      2      -9.4148      2.00000
      3      -9.3003      2.00000
      4      -9.2156      2.00000
      5      -0.2963      0.00000
      6       0.5937      0.00000
      7       0.6912      0.00000
      8       0.7319      0.00000

 k-point     4 :      -0.2500   -0.2500    0.2500
  band No.  band energies     occupation 
      1     -16.9352      2.00000
      2      -9.4147      2.00000
      3      -9.3003      2.00000
      4      -9.2157      2.00000
      5      -0.2963      0.00000
      6       0.6003      0.00000
      7       0.6974      0.00000
      8       0.7217      0.00000


--------------------------------------------------------------------------------------------------------


 soft charge-density along one line, spin component           1
         0         1         2         3         4         5         6         7         8         9
 total charge-density along one line
 
 pseudopotential strength for first ion, spin component:           1
 -2.340  -4.033  -0.001  -0.001   0.001
 -4.033  -6.863  -0.003  -0.004   0.002
 -0.001  -0.003  -0.338   0.002  -0.001
 -0.001  -0.004   0.002  -0.336  -0.001
  0.001   0.002  -0.001  -0.001  -0.339
 total augmentation occupancy for first ion, spin component:           1
  3.520  -0.634   0.230   0.324  -0.143
 -0.634   0.128  -0.043  -0.060   0.026
  0.230  -0.043   0.021   0.018  -0.008
  0.324  -0.060   0.018   0.034  -0.011
 -0.143   0.026  -0.008  -0.011   0.014


------------------------ aborting loop because EDIFF is reached ----------------------------------------


    CHARGE:  cpu time    0.0167: real time    0.0167
    FORLOC:  cpu time    0.0130: real time    0.0130
    FORNL :  cpu time    0.0201: real time    0.0201
    STRESS:  cpu time    0.1522: real time    0.1523
    FORCOR:  cpu time    0.1329: real time    0.1330
    FORHAR:  cpu time    0.0432: real time    0.0432
    MIXING:  cpu time    0.0058: real time    0.0058
    OFIELD:  cpu time    0.0000: real time    0.0000

  FORCE on cell =-STRESS in cart. coord.  units (eV):
  Direction    XX          YY          ZZ          XY          YZ          ZX
  --------------------------------------------------------------------------------------
  Alpha Z     0.24736     0.24736     0.24736
  Ewald      42.42159    45.06210    42.01935    -0.45613    -1.01645    -1.72097
  Hartree    95.11560    95.77065    94.21823    -0.66708    -0.11775    -0.78353
  E(xc)     -27.29683   -27.29564   -27.29308    -0.00592    -0.00232    -0.00890
  Local    -196.49526  -199.05013  -195.07262     1.32484     0.82885     2.31304
  n-local   -16.06187   -16.12028   -16.04164    -0.04445     0.02490    -0.01565
  augment     0.11508     0.10736     0.11430    -0.00280     0.00286     0.00102
  Kinetic   101.76158   101.67951   101.51514     0.30474     0.09788     0.44218
  Fock        0.00000     0.00000     0.00000     0.00000     0.00000     0.00000
[...]
  free energy    TOTEN  =       -24.01418089 eV

  energy without entropy =      -24.01418089  energy(sigma->0) =      -24.01418089


--------------------------------------------------------------------------------------------------------




--------------------------------------- Iteration     10(   2)  ---------------------------------------


    POTLOK:  cpu time    0.1288: real time    0.1288
    SETDIJ:  cpu time    0.0017: real time    0.0017
    EDDIAG:  cpu time    0.0315: real time    0.0315
  RMM-DIIS:  cpu time    0.1371: real time    0.1371
    ORTHCH:  cpu time    0.0014: real time    0.0014
       DOS:  cpu time    0.0002: real time    0.0002
    CHARGE:  cpu time    0.0169: real time    0.0169
    MIXING:  cpu time    0.0043: real time    0.0043
    --------------------------------------------
      LOOP:  cpu time    0.3219: real time    0.3219

 eigenvalue-minimisations  :    56
 total energy-change (2. order) :-0.1984170E-05  (-0.8053576E-06)
 number of electron       8.0000000 magnetization 
 augmentation part        0.1832134 magnetization 

 Broyden mixing:
  rms(total) = 0.12955E-03    rms(broyden)= 0.12934E-03
  rms(prec ) = 0.14979E-03
  weight for this iteration     100.00

 eigenvalues of (default mixing * dielectric matrix)
  average eigenvalue GAMMA=   0.6769
  0.6769

 Free energy of the ion-electron system (eV)
  ---------------------------------------------------
  alpha Z        PSCENC =         0.24735537
  Ewald energy   TEWEN  =       126.07258443
  -Hartree energ DENC   =      -282.08594488
  -exchange      EXHF   =         0.00000000
  -V(xc)+E(xc)   XCENC  =        24.66063675
  PAW double counting   =       456.73531677     -457.51679599
  entropy T*S    EENTRO =        -0.00000000
  eigenvalues    EBANDS =       -89.16908984
  atomic energy  EATOM  =       197.04175453
  Solvation  Ediel_sol  =         0.00000000
  ---------------------------------------------------
  free energy    TOTEN  =       -24.01418287 eV

  energy without entropy =      -24.01418287  energy(sigma->0) =      -24.01418287


--------------------------------------------------------------------------------------------------------




--------------------------------------- Iteration     10(   3)  ---------------------------------------


    POTLOK:  cpu time    0.1305: real time    0.1306
    SETDIJ:  cpu time    0.0017: real time    0.0017
    EDDIAG:  cpu time    0.0309: real time    0.0309
  RMM-DIIS:  cpu time    0.1148: real time    0.1148
    ORTHCH:  cpu time    0.0014: real time    0.0014
       DOS:  cpu time    0.0002: real time    0.0002
    CHARGE:  cpu time    0.0166: real time    0.0166
    MIXING:  cpu time    0.0046: real time    0.0046
    --------------------------------------------
      LOOP:  cpu time    0.3007: real time    0.3008

 eigenvalue-minimisations  :    48
 total energy-change (2. order) :-0.7471245E-06  (-0.2185727E-07)
 number of electron       8.0000000 magnetization 
 augmentation part        0.1832127 magnetization 

 Broyden mixing:
  rms(total) = 0.10112E-03    rms(broyden)= 0.10110E-03
  rms(prec ) = 0.11954E-03
  weight for this iteration     100.00

 eigenvalues of (default mixing * dielectric matrix)
  average eigenvalue GAMMA=   1.5089
  1.3020  1.7159

 Free energy of the ion-electron system (eV)
  ---------------------------------------------------
  alpha Z        PSCENC =         0.24735537
  Ewald energy   TEWEN  =       126.07258443
  -Hartree energ DENC   =      -282.08599578
  -exchange      EXHF   =         0.00000000
  -V(xc)+E(xc)   XCENC  =        24.66063853
  PAW double counting   =       456.72474108     -457.50622061
  entropy T*S    EENTRO =        -0.00000000
  eigenvalues    EBANDS =       -89.16904116
  atomic energy  EATOM  =       197.04175453
  Solvation  Ediel_sol  =         0.00000000
  ---------------------------------------------------
  free energy    TOTEN  =       -24.01418362 eV

  energy without entropy =      -24.01418362  energy(sigma->0) =      -24.01418362


--------------------------------------------------------------------------------------------------------




--------------------------------------- Iteration     10(   4)  ---------------------------------------


    POTLOK:  cpu time    0.1314: real time    0.1314
    SETDIJ:  cpu time    0.0017: real time    0.0017
    EDDIAG:  cpu time    0.0314: real time    0.0314
  RMM-DIIS:  cpu time    0.1121: real time    0.1121
    ORTHCH:  cpu time    0.0015: real time    0.0015
       DOS:  cpu time    0.0002: real time    0.0002
    CHARGE:  cpu time    0.0169: real time    0.0169
    MIXING:  cpu time    0.0048: real time    0.0048
    --------------------------------------------
      LOOP:  cpu time    0.3000: real time    0.3000

 eigenvalue-minimisations  :    40
 total energy-change (2. order) :-0.1925338E-05  (-0.2716103E-08)
 number of electron       8.0000000 magnetization 
 augmentation part        0.1832126 magnetization 

 Broyden mixing:
  rms(total) = 0.21290E-04    rms(broyden)= 0.21283E-04
  rms(prec ) = 0.37452E-04
  weight for this iteration     100.00

 eigenvalues of (default mixing * dielectric matrix)
  average eigenvalue GAMMA=   1.5077
  2.5559  1.0260  0.9411

 Free energy of the ion-electron system (eV)
  ---------------------------------------------------
  alpha Z        PSCENC =         0.24735537
  Ewald energy   TEWEN  =       126.07258443
  -Hartree energ DENC   =      -282.08555850
  -exchange      EXHF   =         0.00000000
  -V(xc)+E(xc)   XCENC  =        24.66062033
  PAW double counting   =       456.70319946     -457.48467137
  entropy T*S    EENTRO =        -0.00000000
  eigenvalues    EBANDS =       -89.16946981
  atomic energy  EATOM  =       197.04175453
  Solvation  Ediel_sol  =         0.00000000
  ---------------------------------------------------
  free energy    TOTEN  =       -24.01418554 eV

  energy without entropy =      -24.01418554  energy(sigma->0) =      -24.01418554


--------------------------------------------------------------------------------------------------------




--------------------------------------- Iteration     10(   5)  ---------------------------------------


    POTLOK:  cpu time    0.1321: real time    0.1321
    SETDIJ:  cpu time    0.0018: real time    0.0018
    EDDIAG:  cpu time    0.0309: real time    0.0309
  RMM-DIIS:  cpu time    0.1091: real time    0.1091
    ORTHCH:  cpu time    0.0018: real time    0.0018
       DOS:  cpu time    0.0002: real time    0.0002
    CHARGE:  cpu time    0.0168: real time    0.0168
    MIXING:  cpu time    0.0048: real time    0.0048
    --------------------------------------------
      LOOP:  cpu time    0.2974: real time    0.2974

 eigenvalue-minimisations  :    40
 total energy-change (2. order) :-0.1169532E-05  (-0.4266219E-08)
 number of electron       8.0000000 magnetization 
 augmentation part        0.1832129 magnetization 

 Broyden mixing:
  rms(total) = 0.15821E-04    rms(broyden)= 0.15819E-04
  rms(prec ) = 0.28805E-04
  weight for this iteration     100.00

 eigenvalues of (default mixing * dielectric matrix)
  average eigenvalue GAMMA=   1.3377
  2.5514  0.8993  0.8993  1.0008

 Free energy of the ion-electron system (eV)
  ---------------------------------------------------
  alpha Z        PSCENC =         0.24735537
  Ewald energy   TEWEN  =       126.07258443
  -Hartree energ DENC   =      -282.08561283
  -exchange      EXHF   =         0.00000000
  -V(xc)+E(xc)   XCENC  =        24.66062234
  PAW double counting   =       456.69462196     -457.47609283
  entropy T*S    EENTRO =        -0.00000000
  eigenvalues    EBANDS =       -89.16941968
  atomic energy  EATOM  =       197.04175453
  Solvation  Ediel_sol  =         0.00000000
  ---------------------------------------------------
  free energy    TOTEN  =       -24.01418671 eV

  energy without entropy =      -24.01418671  energy(sigma->0) =      -24.01418671


--------------------------------------------------------------------------------------------------------




--------------------------------------- Iteration     10(   6)  ---------------------------------------


    POTLOK:  cpu time    0.1321: real time    0.1321
    SETDIJ:  cpu time    0.0017: real time    0.0017
    EDDIAG:  cpu time    0.0314: real time    0.0315
  RMM-DIIS:  cpu time    0.0960: real time    0.0960
    ORTHCH:  cpu time    0.0015: real time    0.0015
       DOS:  cpu time    0.0002: real time    0.0002
    --------------------------------------------
      LOOP:  cpu time    0.2628: real time    0.2629

 eigenvalue-minimisations  :    32
 total energy-change (2. order) :-0.8202963E-06  ( 0.0000000E+00)
 number of electron       8.0000000 magnetization 
 augmentation part        0.1832129 magnetization 

 Free energy of the ion-electron system (eV)
  ---------------------------------------------------
  alpha Z        PSCENC =         0.24735537
  Ewald energy   TEWEN  =       126.07258443
  -Hartree energ DENC   =      -282.08607084
  -exchange      EXHF   =         0.00000000
  -V(xc)+E(xc)   XCENC  =        24.66064304
  PAW double counting   =       456.69639546     -457.47787030
  entropy T*S    EENTRO =        -0.00000000
  eigenvalues    EBANDS =       -89.16897923
  atomic energy  EATOM  =       197.04175453
  Solvation  Ediel_sol  =         0.00000000
  ---------------------------------------------------
  free energy    TOTEN  =       -24.01418753 eV

  energy without entropy =      -24.01418753  energy(sigma->0) =      -24.01418753


--------------------------------------------------------------------------------------------------------




 average (electrostatic) potential at core
  the test charge radii are     0.5201  0.6991
  (the norm of the test charge is              1.0000)
       1 -41.5614       2 -41.5015       3 -41.2811       4 -41.4362       5 -58.0054
 
 
 
 E-fermi :  -8.1939     XC(G=0):  -0.7194     alpha+bet : -0.2151


 k-point     1 :       0.2500    0.2500    0.2500
  band No.  band energies     occupation 
      1     -16.8235      2.00000
      2      -9.3304      2.00000
      3      -9.2586      2.00000
      4      -9.1718      2.00000
      5      -0.3181      0.00000
      6       0.5558      0.00000
      7       0.6662      0.00000
      8       0.6930      0.00000

 k-point     2 :      -0.2500    0.2500    0.2500
  band No.  band energies     occupation 
      1     -16.8235      2.00000
      2      -9.3305      2.00000
      3      -9.2588      2.00000
      4      -9.1719      2.00000
      5      -0.3284      0.00000
      6       0.5763      0.00000
      7       0.6807      0.00000
      8       0.7228      0.00000

 k-point     3 :       0.2500   -0.2500    0.2500
  band No.  band energies     occupation 
      1     -16.8235      2.00000
      2      -9.3304      2.00000
      3      -9.2586      2.00000
      4      -9.1719      2.00000
      5      -0.3232      0.00000
      6       0.5602      0.00000
      7       0.6711      0.00000
      8       0.7149      0.00000

 k-point     4 :      -0.2500   -0.2500    0.2500
  band No.  band energies     occupation 
      1     -16.8235      2.00000
      2      -9.3304      2.00000
      3      -9.2587      2.00000
      4      -9.1719      2.00000
      5      -0.3224      0.00000
      6       0.5643      0.00000
      7       0.6801      0.00000
      8       0.7003      0.00000


--------------------------------------------------------------------------------------------------------


 soft charge-density along one line, spin component           1
         0         1         2         3         4         5         6         7         8         9
 total charge-density along one line
 
 pseudopotential strength for first ion, spin component:           1
 -2.342  -4.035  -0.001  -0.001   0.001
 -4.035  -6.867  -0.003  -0.004   0.002
 -0.001  -0.003  -0.337   0.002  -0.001
 -0.001  -0.004   0.002  -0.335  -0.001
  0.001   0.002  -0.001  -0.001  -0.338
 total augmentation occupancy for first ion, spin component:           1
  3.573  -0.643   0.240   0.338  -0.147
 -0.643   0.130  -0.044  -0.062   0.027
  0.240  -0.044   0.023   0.019  -0.008
  0.338  -0.062   0.019   0.036  -0.012
 -0.147   0.027  -0.008  -0.012   0.014


------------------------ aborting loop because EDIFF is reached ----------------------------------------


    CHARGE:  cpu time    0.0164: real time    0.0164
    FORLOC:  cpu time    0.0131: real time    0.0131
    FORNL :  cpu time    0.0209: real time    0.0209
    STRESS:  cpu time    0.1534: real time    0.1534
    FORCOR:  cpu time    0.1333: real time    0.1333
    FORHAR:  cpu time    0.0434: real time    0.0434
    MIXING:  cpu time    0.0053: real time    0.0053
    OFIELD:  cpu time    0.0000: real time    0.0000

  FORCE on cell =-STRESS in cart. coord.  units (eV):
  Direction    XX          YY          ZZ          XY          YZ          ZX
  --------------------------------------------------------------------------------------
  Alpha Z     0.24736     0.24736     0.24736
  Ewald      42.17182    42.29940    41.60134    -1.17034     0.22916    -0.87414
  Hartree    94.03936    95.02678    93.02024    -0.28331    -0.11523    -0.39559
  E(xc)     -27.12567   -27.11969   -27.12399     0.00154    -0.00221    -0.00130
  Local    -194.97806  -196.53077  -193.24117     1.09940     0.05825     1.11504
  n-local   -15.73704   -15.66246   -15.73896     0.04334    -0.02482     0.01045
  augment     0.11863     0.12284     0.11727     0.00340    -0.00185     0.00138
  Kinetic   100.75900   100.43306   100.65821    -0.08782     0.10886     0.06203
  Fock        0.00000     0.00000     0.00000     0.00000     0.00000     0.00000
  -------------------------------------------------------------------------------------
  Total      -0.50461    -1.18350    -0.45971    -0.39379     0.25217    -0.08213
  in kB      -0.82550    -1.93613    -0.75206    -0.64422     0.41253    -0.13436
  external pressure =       -1.17 kB  Pullay stress =        0.00 kB

  kinetic pressure (ideal gas correction) =      0.01 kB
  total pressure  =     -1.16 kB
  Total+kin.    -0.816      -1.928      -0.749      -0.638       0.416      -0.131

 VOLUME and BASIS-vectors are now :
 -----------------------------------------------------------------------------
  energy-cutoff  :      400.00
  volume of cell :      979.36
      direct lattice vectors                 reciprocal lattice vectors
     9.922517592  0.000000000  0.000000000     0.100780874  0.002492757  0.002383030
    -0.244058783  9.867170988  0.000000000     0.000000000  0.101346171 -0.000027309
    -0.236593651  0.002695432 10.002978495     0.000000000  0.000000000  0.099970224

  length of vectors
     9.922517592  9.870188853 10.005776462     0.100839860  0.101346175  0.099970224


 FORCES acting on ions
    electron-ion (+dipol)            ewald-force                    non-local-force                 convergence-correction
 -----------------------------------------------------------------------------------------------
   -.178E+02 0.289E+02 0.407E+02   0.197E+02 -.321E+02 -.452E+02   -.188E+01 0.306E+01 0.431E+01   0.816E-05 0.172E-04 0.673E-05
   0.522E+02 -.589E+01 0.378E+01   -.577E+02 0.652E+01 -.419E+01   0.546E+01 -.622E+00 0.389E+00   0.149E-05 0.231E-04 0.152E-04
   -.222E+02 -.463E+02 0.974E+00   0.241E+02 0.501E+02 -.104E+01   -.219E+01 -.458E+01 0.991E-01   0.177E-04 0.392E-04 0.169E-04
   -.114E+02 0.240E+02 -.451E+02   0.126E+02 -.263E+02 0.495E+02   -.117E+01 0.247E+01 -.463E+01   0.691E-05 0.232E-04 0.158E-04
   -.113E+01 -.143E+01 -.749E+00   0.133E+01 0.181E+01 0.943E+00   0.125E+00 0.401E+00 0.186E+00   0.185E-04 0.887E-04 0.943E-04
 -----------------------------------------------------------------------------------------------
   -.347E+00 -.724E+00 -.352E+00   -.178E-14 0.000E+00 0.000E+00   0.347E+00 0.724E+00 0.352E+00   0.528E-04 0.191E-03 0.149E-03
 
 
 POSITION                                       TOTAL-FORCE (eV/Angst)
 -----------------------------------------------------------------------------------
      5.14512      4.01661      3.61877         0.079769     -0.119902     -0.168780
      3.69315      4.73407      4.37740        -0.021999      0.000956     -0.015565
      5.26631      5.62716      4.43439        -0.355516     -0.797963      0.037590
      5.02110      4.10433      5.40808        -0.026946      0.145078     -0.233673
      4.77970      4.61118      4.45575         0.324554      0.772235      0.380562
 -----------------------------------------------------------------------------------
    total drift:                               -0.000137      0.000404      0.000134


--------------------------------------------------------------------------------------------------------



  FREE ENERGIE OF THE ION-ELECTRON SYSTEM (eV)
  ---------------------------------------------------
  free  energy   TOTEN  =       -24.01418753 eV

  energy  without entropy=      -24.01418753  energy(sigma->0) =      -24.01418753
 
 d Force =-0.3923508E-02[-0.427E-02,-0.358E-02]  d Energy =-0.3923800E-02 0.291E-06
 d Force = 0.2815423E+00[ 0.281E+00, 0.282E+00]  d Ewald  = 0.2815413E+00 0.104E-05


--------------------------------------------------------------------------------------------------------


    POTLOK:  cpu time    0.1379: real time    0.1379


--------------------------------------------------------------------------------------------------------


 stress matrix after NEB project (eV)
     -0.50461     -0.39379     -0.08213
     -0.39379     -1.18350      0.25217
     -0.08213      0.25217     -0.45971
  FORCES: max atom, RMS     0.920060    0.589473
  FORCE total and by dimension    1.318101    0.797963
  Stress total and by dimension    1.522314    1.183498
           RANDOM_SEED =         581367997               30                0
   IONSTEP:  cpu time    0.0002: real time    0.0002

  ENERGY OF THE ELECTRON-ION-THERMOSTAT SYSTEM (eV)
  ---------------------------------------------------
% ion-electron   TOTEN  =       -24.014188  see above
  kinetic energy EKIN   =         0.004407
  kin. lattice  EKIN_LAT=         0.000000  (temperature    8.52 K)
  nose potential ES     =         0.000000
  nose kinetic   EPS    =         0.000000
  ---------------------------------------------------
  total energy   ETOTAL =       -24.009781 eV

  maximum distance moved by ions :      0.27E-03


 mean value of Nose-termostat <S>:     1.000 mean value of <T> :    19.975
 mean temperature <T/S>/<1/S>  :    19.975

    WAVPRE:  cpu time    0.0480: real time    0.0480
    FEWALD:  cpu time    0.0006: real time    0.0006
    ORTHCH:  cpu time    0.0084: real time    0.0084
 Prediction of Wavefunctions ALPHA= 2.077 BETA=-1.103
    POTLOK:  cpu time    0.1281: real time    0.1281
    EDDIAG:  cpu time    0.0317: real time    0.0317
     LOOP+:  cpu time    2.5191: real time    2.5192
    4ORBIT:  cpu time    0.0000: real time    0.0009

 total amount of memory used by VASP MPI-rank0    54588. kBytes
=======================================================================

   base      :      30000. kBytes
   nonl-proj :       2647. kBytes
   fftplans  :       7846. kBytes
   grid      :      12367. kBytes
   one-center:          6. kBytes
   wavefun   :       1722. kBytes
 
  
  
 General timing and accounting informations for this job:
 ========================================================
  
                  Total CPU time used (sec):       26.430
                            User time (sec):       24.669
                          System time (sec):        1.761
                         Elapsed time (sec):       26.895
  
                   Maximum memory used (kb):      179044.
                   Average memory used (kb):           0.
  
                          Minor page faults:       247504
                          Major page faults:           97
                 Voluntary context switches:          468
