    5    5   10    1
  0.2040577E+03  0.1024943E-08  0.9769513E-09  0.1019021E-08  0.5000000E-15
  1.000000000000000E-004
  CAR 
 unknown system                          
      8      4      8
 
  0.2500000E+00  0.2500000E+00  0.2500000E+00  0.2500000E+00
    1      -16.941385   1.000000
    2       -9.416827   1.000000
    3       -9.325496   1.000000
    4       -9.205854   1.000000
    5       -0.307502   0.000000
    6        0.552414   0.000000
    7        0.666646   0.000000
    8        0.706557   0.000000
 
 -0.2500000E+00  0.2500000E+00  0.2500000E+00  0.2500000E+00
    1      -16.941370   1.000000
    2       -9.416864   1.000000
    3       -9.325504   1.000000
    4       -9.205881   1.000000
    5       -0.308190   0.000000
    6        0.554123   0.000000
    7        0.662192   0.000000
    8        0.707910   0.000000
 
  0.2500000E+00 -0.2500000E+00  0.2500000E+00  0.2500000E+00
    1      -16.941408   1.000000
    2       -9.416913   1.000000
    3       -9.325487   1.000000
    4       -9.205876   1.000000
    5       -0.305130   0.000000
    6        0.546445   0.000000
    7        0.657824   0.000000
    8        0.701225   0.000000
 
 -0.2500000E+00 -0.2500000E+00  0.2500000E+00  0.2500000E+00
    1      -16.941411   1.000000
    2       -9.416837   1.000000
    3       -9.325534   1.000000
    4       -9.205892   1.000000
    5       -0.305177   0.000000
    6        0.546496   0.000000
    7        0.665474   0.000000
    8        0.698357   0.000000
