 vasp.5.4.4.18Apr17-6-g9f103f2a35 (build Nov 25 2021 15:25:00) complex          
  
 executed on             LinuxIFC date 2022.02.21  10:17:17
 running on   16 total cores
 distrk:  each k-point on   16 cores,    1 groups
 distr:  one band on NCORES_PER_BAND=   4 cores,    4 groups


--------------------------------------------------------------------------------------------------------


 INCAR:
 POTCAR:    PAW_PBE H 15Jun2001                   
 POTCAR:    PAW_PBE C 08Apr2002                   
 POTCAR:    PAW_PBE H 15Jun2001                   
   VRHFIN =H: ultrasoft test                                                    
   LEXCH  = PE                                                                  
   EATOM  =    12.4884 eV,    0.9179 Ry                                         
                                                                                
   TITEL  = PAW_PBE H 15Jun2001                                                 
   LULTRA =        F    use ultrasoft PP ?                                      
   IUNSCR =        0    unscreen: 0-lin 1-nonlin 2-no                           
   RPACOR =    0.000    partial core radius                                     
   POMASS =    1.000; ZVAL   =    1.000    mass and valenz                      
   RCORE  =    1.100    outmost cutoff radius                                   
   RWIGS  =    0.700; RWIGS  =    0.370    wigner-seitz radius (au A)           
   ENMAX  =  250.000; ENMIN  =  200.000 eV                                      
   RCLOC  =    0.701    cutoff for local pot                                    
   LCOR   =        T    correct aug charges                                     
   LPAW   =        T    paw PP                                                  
   EAUG   =  400.000                                                            
   RMAX   =    1.123    core radius for proj-oper                               
   RAUG   =    1.200    factor for augmentation sphere                          
   RDEP   =    1.112    radius for radial grids                                 
   RDEPT  =    0.926    core radius for aug-charge                              
                                                                                
   Atomic configuration                                                         
    2 entries                                                                   
     n  l   j            E        occ.                                          
     1  0  0.50        -6.4927   1.0000                                         
     2  1  0.50        -3.4015   0.0000                                         
   Description                                                                  
     l       E           TYP  RCUT    TYP  RCUT                                 
     0     -6.4927494     23  1.100                                             
     0      6.8029130     23  1.100                                             
     1     -4.0817478     23  1.100                                             
  local pseudopotential read in
  atomic valenz-charges read in
  non local Contribution for L=           0  read in
    real space projection operators read in
  non local Contribution for L=           0  read in
    real space projection operators read in
  non local Contribution for L=           1  read in
    real space projection operators read in
    PAW grid and wavefunctions read in
 
   number of l-projection  operators is LMAX  =           3
   number of lm-projection operators is LMMAX =           5
 
 POTCAR:    PAW_PBE C 08Apr2002                   
   VRHFIN =C: s2p2                                                              
   LEXCH  = PE                                                                  
   EATOM  =   147.1560 eV,   10.8157 Ry                                         
                                                                                
   TITEL  = PAW_PBE C 08Apr2002                                                 
   LULTRA =        F    use ultrasoft PP ?                                      
   IUNSCR =        1    unscreen: 0-lin 1-nonlin 2-no                           
   RPACOR =    1.200    partial core radius                                     
   POMASS =   12.011; ZVAL   =    4.000    mass and valenz                      
   RCORE  =    1.500    outmost cutoff radius                                   
   RWIGS  =    1.630; RWIGS  =    0.863    wigner-seitz radius (au A)           
   ENMAX  =  400.000; ENMIN  =  300.000 eV                                      
   ICORE  =        2    local potential                                         
   LCOR   =        T    correct aug charges                                     
   LPAW   =        T    paw PP                                                  
   EAUG   =  644.873                                                            
   DEXC   =    0.000                                                            
   RMAX   =    1.529    core radius for proj-oper                               
   RAUG   =    1.300    factor for augmentation sphere                          
   RDEP   =    1.501    radius for radial grids                                 
   RDEPT  =    1.300    core radius for aug-charge                              
                                                                                
   Atomic configuration                                                         
    4 entries                                                                   
     n  l   j            E        occ.                                          
     1  0  0.50      -273.3789   2.0000                                         
     2  0  0.50       -13.7508   2.0000                                         
     2  1  0.50        -5.2854   2.0000                                         
     3  2  1.50        -5.4423   0.0000                                         
   Description                                                                  
     l       E           TYP  RCUT    TYP  RCUT                                 
     0    -13.7508458     23  1.200                                             
     0     -8.2022199     23  1.200                                             
     1     -5.2854383     23  1.500                                             
     1     34.0145650     23  1.500                                             
     2     -5.4423304      7  1.500                                             
  local pseudopotential read in
  partial core-charges read in
  partial kinetic energy density read in
  atomic valenz-charges read in
  non local Contribution for L=           0  read in
    real space projection operators read in
  non local Contribution for L=           0  read in
    real space projection operators read in
  non local Contribution for L=           1  read in
    real space projection operators read in
  non local Contribution for L=           1  read in
    real space projection operators read in
    PAW grid and wavefunctions read in
 
   number of l-projection  operators is LMAX  =           4
   number of lm-projection operators is LMMAX =           8
 
  PAW_PBE H 15Jun2001                   :
 energy of atom  1       EATOM=  -12.4884
 kinetic energy error for atom=    0.0098 (will be added to EATOM!!)
  PAW_PBE C 08Apr2002                   :
 energy of atom  2       EATOM= -147.1560
 kinetic energy error for atom=    0.0288 (will be added to EATOM!!)
 
 
 POSCAR:  H  C                                   
  positions in cartesian coordinates
  No initial velocities read in
 exchange correlation table for  LEXCH =        8
   RHO(1)=    0.500       N(1)  =     2000
   RHO(2)=  100.500       N(2)  =     4000

 VTST: version 3.2, (02/03/18)

 CHAIN: initializing optimizer
 
 OPT: Using VASP Dynamics algorithm
 CHAIN: Read ICHAIN            0
 
 POSCAR:  H  C                                   
  positions in cartesian coordinates
  No initial velocities read in
 


--------------------------------------------------------------------------------------------------------


 ion  position               nearest neighbor table
   1  0.539  0.407  0.361-   5 1.11
   2  0.394  0.481  0.438-   5 1.13
   3  0.552  0.565  0.442-   5 1.08
   4  0.528  0.416  0.539-   5 1.10
   5  0.503  0.467  0.445-   3 1.08   4 1.10   1 1.11   2 1.13
 

IMPORTANT INFORMATION: All symmetrisations will be switched off!
NOSYMM: (Re-)initialisation of all symmetry stuff for point group C_1.

 
 

Automatic generation of k-mesh.
 generate k-points for:    2    2    2
Space group operators:
 irot       det(A)        alpha          n_x          n_y          n_z        tau_x        tau_y        tau_z
    1     1.000000     0.000001     1.000000     0.000000     0.000000     0.000000     0.000000     0.000000
 
 Subroutine IBZKPT returns following result:
 ===========================================
 
 Found      4 irreducible k-points:
 
 Following reciprocal coordinates:
            Coordinates               Weight
  0.250000  0.250000  0.250000      2.000000
 -0.250000  0.250000  0.250000      2.000000
  0.250000 -0.250000  0.250000      2.000000
 -0.250000 -0.250000  0.250000      2.000000
 
 Following cartesian coordinates:
            Coordinates               Weight
  0.024392  0.025560  0.024270      2.000000
 -0.024392  0.025620  0.024179      2.000000
  0.024392 -0.025620  0.024891      2.000000
 -0.024392 -0.025560  0.024800      2.000000
 


--------------------------------------------------------------------------------------------------------




 Dimension of arrays:
   k-points           NKPTS =      4   k-points in BZ     NKDIM =      4   number of bands    NBANDS=      8
   number of dos      NEDOS =    301   number of ions     NIONS =      5
   non local maximal  LDIM  =      4   non local SUM 2l+1 LMDIM =      8
   total plane-waves  NPLWV = 313600
   max r-space proj   IRMAX =      1   max aug-charges    IRDMAX=   3826
   dimension x,y,z NGX =    70 NGY =   64 NGZ =   70
   dimension x,y,z NGXF=   140 NGYF=  128 NGZF=  140
   support grid    NGXF=   140 NGYF=  128 NGZF=  140
   ions per type =               4   1
   NGX,Y,Z   is equivalent  to a cutoff of  11.35, 10.89, 11.42 a.u.
   NGXF,Y,Z  is equivalent  to a cutoff of  22.71, 21.78, 22.84 a.u.

 SYSTEM =  unknown system                          
 POSCAR =   H  C                                   

 Startparameter for this run:
   NWRITE =      2    write-flag & timer
   PREC   = a         normal or accurate (medium, high low for compatibility)
   ISTART =      0    job   : 0-new  1-cont  2-samecut
   ICHARG =      2    charge: 1-file 2-atom 10-const
   ISPIN  =      1    spin polarized calculation?
   LNONCOLLINEAR =      F non collinear calculations
   LSORBIT =      F    spin-orbit coupling
   INIWAV =      1    electr: 0-lowe 1-rand  2-diag
   LASPH  =      F    aspherical Exc in radial PAW
   METAGGA=      F    non-selfconsistent MetaGGA calc.

 Electronic Relaxation 1
   ENCUT  =  400.0 eV  29.40 Ry    5.42 a.u.  16.71 15.93 16.62*2*pi/ulx,y,z
   ENINI  =  400.0     initial cutoff
   ENAUG  =  644.9 eV  augmentation charge cutoff
   NELM   =    120;   NELMIN=  4; NELMDL= -5     # of ELM steps 
   EDIFF  = 0.1E-05   stopping-criterion for ELM
   LREAL  =      F    real-space projection
   NLSPLINE    = F    spline interpolate recip. space projectors
   LCOMPAT=      F    compatible to vasp.4.4
   GGA_COMPAT  = T    GGA compatible to vasp.4.4-vasp.4.6
   LMAXPAW     = -100 max onsite density
   LMAXMIX     =    2 max onsite mixed and CHGCAR
   VOSKOWN=      0    Vosko Wilk Nusair interpolation
   ROPT   =    0.00000   0.00000
 Ionic relaxation
   EDIFFG = 0.1E-04   stopping-criterion for IOM
   NSW    =     10    number of steps for IOM
   NBLOCK =      1;   KBLOCK =     10    inner block; outer block 
   IBRION =      0    ionic relax: 0-MD 1-quasi-New 2-CG
   NFREE  =      0    steps in history (QN), initial steepest desc. (CG)
   ISIF   =      2    stress and relaxation
   IWAVPR =     12    prediction:  0-non 1-charg 2-wave 3-comb
   ISYM   =      0    0-nonsym 1-usesym 2-fastsym
   LCORR  =      T    Harris-Foulkes like correction to forces

   POTIM  = 0.5000    time-step for ionic-motion
   TEIN   =    0.0    initial temperature
   TEBEG  =    0.0;   TEEND  =   0.0 temperature during run
   SMASS  =  -3.00    Nose mass-parameter (am)
   estimated Nose-frequenzy (Omega)   =  0.10E-29 period in steps =****** mass=  -0.240E-26a.u.
   SCALEE = 1.0000    scale energy and forces
   NPACO  =    256;   APACO  = 16.0  distance and # of slots for P.C.
   PSTRESS=    0.0 pullay stress

  Mass of Ions in am
   POMASS =   1.00 12.01
  Ionic Valenz
   ZVAL   =   1.00  4.00
  Atomic Wigner-Seitz radii
   RWIGS  =  -1.00 -1.00
  virtual crystal weights 
   VCA    =   1.00  1.00
   NELECT =       8.0000    total number of electrons
   NUPDOWN=      -1.0000    fix difference up-down

 DOS related values:
   EMIN   =  10.00;   EMAX   =-10.00  energy-range for DOS
   EFERMI =   0.00
   ISMEAR =     0;   SIGMA  =   0.20  broadening in eV -4-tet -1-fermi 0-gaus

 Electronic relaxation 2 (details)
   IALGO  =     68    algorithm
   LDIAG  =      T    sub-space diagonalisation (order eigenvalues)
   LSUBROT=      F    optimize rotation matrix (better conditioning)
   TURBO    =      0    0=normal 1=particle mesh
   IRESTART =      0    0=no restart 2=restart with 2 vectors
   NREBOOT  =      0    no. of reboots
   NMIN     =      0    reboot dimension
   EREF     =   0.00    reference energy to select bands
   IMIX   =      4    mixing-type and parameters
     AMIX     =   0.40;   BMIX     =  1.00
     AMIX_MAG =   1.60;   BMIX_MAG =  1.00
     AMIN     =   0.10
     WC   =   100.;   INIMIX=   1;  MIXPRE=   1;  MAXMIX= -45

 Intra band minimization:
   WEIMIN = 0.0010     energy-eigenvalue tresh-hold
   EBREAK =  0.31E-07  absolut break condition
   DEPER  =   0.30     relativ break condition  

   TIME   =   0.40     timestep for ELM

  volume/ion in A,a.u.               =     204.06      1377.05
  Fermi-wavevector in a.u.,A,eV,Ry     =   0.325235  0.614605  1.439194  0.105778
  Thomas-Fermi vector in A             =   1.216053
 
 Write flags
   LWAVE        =      F    write WAVECAR
   LDOWNSAMPLE  =      F    k-point downsampling of WAVECAR
   LCHARG       =      F    write CHGCAR
   LVTOT        =      F    write LOCPOT, total local potential
   LVHAR        =      F    write LOCPOT, Hartree potential only
   LELF         =      F    write electronic localiz. function (ELF)
   LORBIT       =      0    0 simple, 1 ext, 2 COOP (PROOUT), +10 PAW based schemes


 Dipole corrections
   LMONO  =      F    monopole corrections only (constant potential shift)
   LDIPOL =      F    correct potential (dipole corrections)
   IDIPOL =      0    1-x, 2-y, 3-z, 4-all directions 
   EPSILON=  1.0000000 bulk dielectric constant

 Exchange correlation treatment:
   GGA     =    --    GGA type
   LEXCH   =     8    internal setting for exchange type
   VOSKOWN=      0    Vosko Wilk Nusair interpolation
   LHFCALC =     F    Hartree Fock is set to
   LHFONE  =     F    Hartree Fock one center treatment
   AEXX    =    0.0000 exact exchange contribution

 Linear response parameters
   LEPSILON=     F    determine dielectric tensor
   LRPA    =     F    only Hartree local field effects (RPA)
   LNABLA  =     F    use nabla operator in PAW spheres
   LVEL    =     F    velocity operator in full k-point grid
   LINTERFAST=   F  fast interpolation
   KINTER  =     0    interpolate to denser k-point grid
   CSHIFT  =0.1000    complex shift for real part using Kramers Kronig
   OMEGAMAX=  -1.0    maximum frequency
   DEG_THRESHOLD= 0.2000000E-02 threshold for treating states as degnerate
   RTIME   =   -0.100 relaxation time in fs
  (WPLASMAI=    0.000 imaginary part of plasma frequency in eV, 0.658/RTIME)
   DFIELD  = 0.0000000 0.0000000 0.0000000 field for delta impulse in time
 
 Orbital magnetization related:
   ORBITALMAG=     F  switch on orbital magnetization
   LCHIMAG   =     F  perturbation theory with respect to B field
   DQ        =  0.001000  dq finite difference perturbation B field
   LLRAUG    =     F  two centre corrections for induced B field



--------------------------------------------------------------------------------------------------------


 molecular dynamics for ions
   using a microcanonical ensemble
 charge density and potential will be updated during run
 non-spin polarized calculation
 RMM-DIIS sequential band-by-band and
  variant of blocked Davidson during initial phase
 perform sub-space diagonalisation
    before iterative eigenvector-optimisation
 modified Broyden-mixing scheme, WC =      100.0
 initial mixing is a Kerker type mixing with AMIX =  0.4000 and BMIX =      1.0000
 Hartree-type preconditioning will be used
 using additional bands            4
 reciprocal scheme for non local part
 use partial core corrections
 calculate Harris-corrections to forces 
   (improved forces if not selfconsistent)
 use gradient corrections 
 use of overlap-Matrix (Vanderbilt PP)
 Gauss-broadening in eV      SIGMA  =   0.20


--------------------------------------------------------------------------------------------------------


  energy-cutoff  :      400.00
  volume of cell :     1020.29
      direct lattice vectors                 reciprocal lattice vectors
    10.249434350  0.000000000  0.000000000     0.097566360 -0.000121076  0.000182446
     0.012123523  9.769505160  0.000000000     0.000000000  0.102359330 -0.001242496
    -0.018900409  0.123685309 10.189445205     0.000000000  0.000000000  0.098140770

  length of vectors
    10.249434350  9.769512682 10.190213387     0.097566606  0.102366871  0.098140770


 
 k-points in units of 2pi/SCALE and weight: read from INCAR                         
   0.02439159  0.02555956  0.02427018       0.250
  -0.02439159  0.02562010  0.02417896       0.250
   0.02439159 -0.02562010  0.02489143       0.250
  -0.02439159 -0.02555956  0.02480021       0.250
 
 k-points in reciprocal lattice and weights: read from INCAR                         
   0.25000000  0.25000000  0.25000000       0.250
  -0.25000000  0.25000000  0.25000000       0.250
   0.25000000 -0.25000000  0.25000000       0.250
  -0.25000000 -0.25000000  0.25000000       0.250
 
 position of ions in fractional coordinates (direct lattice) 
   0.53863484  0.40693130  0.36093464
   0.39429429  0.48105319  0.43796981
   0.55212606  0.56542175  0.44228325
   0.52839707  0.41612764  0.53883638
   0.50329207  0.46737838  0.44536279
 
 position of ions in cartesian coordinates  (Angst):
   5.51881405  4.02015978  3.67772378
   4.03884770  4.75382206  4.46266934
   5.65747539  5.57859461  4.50662094
   5.41063175  4.13200725  5.49044380
   5.15570772  4.62114032  4.53799976
 


--------------------------------------------------------------------------------------------------------


 k-point  1 :   0.2500 0.2500 0.2500  plane waves:   18529
 k-point  2 :  -0.2500 0.2500 0.2500  plane waves:   18533
 k-point  3 :   0.2500-0.2500 0.2500  plane waves:   18538
 k-point  4 :  -0.2500-0.2500 0.2500  plane waves:   18538

 maximum and minimum number of plane-waves per node :      4651     4596

 maximum number of plane-waves:     18538
 maximum index in each direction: 
   IXMAX=   16   IYMAX=   16   IZMAX=   16
   IXMIN=  -16   IYMIN=  -16   IZMIN=  -16


 parallel 3D FFT for wavefunctions:
    minimum data exchange during FFTs selected (reduces bandwidth)
 parallel 3D FFT for charge:
    minimum data exchange during FFTs selected (reduces bandwidth)


 total amount of memory used by VASP MPI-rank0    53567. kBytes
=======================================================================

   base      :      30000. kBytes
   nonl-proj :       2751. kBytes
   fftplans  :       7847. kBytes
   grid      :      12367. kBytes
   one-center:          6. kBytes
   wavefun   :        596. kBytes
 
     INWAV:  cpu time    0.0000: real time    0.0001
 Broyden mixing: mesh for mixing (old mesh)
   NGX = 33   NGY = 31   NGZ = 33
  (NGX  =140   NGY  =128   NGZ  =140)
  gives a total of  33759 points

 initial charge density was supplied:
 charge density of overlapping atoms calculated
 number of electron       8.0000000 magnetization 
 keeping initial charge density in first step


--------------------------------------------------------------------------------------------------------


 Maximum index for augmentation-charges          151 (set IRDMAX)


--------------------------------------------------------------------------------------------------------


 First call to EWALD:  gamma=   0.176
 Maximum number of real-space cells 3x 3x 3
 Maximum number of reciprocal cells 3x 3x 3

    FEWALD:  cpu time    0.0039: real time    0.0039


--------------------------------------- Iteration      1(   1)  ---------------------------------------


    POTLOK:  cpu time    0.1564: real time    0.1705
    SETDIJ:  cpu time    0.0051: real time    0.0058
     EDDAV:  cpu time    0.1737: real time    0.1986
       DOS:  cpu time    0.0003: real time    0.0011
    --------------------------------------------
      LOOP:  cpu time    0.3356: real time    0.3760

 eigenvalue-minimisations  :    88
 total energy-change (2. order) : 0.2130839E+02  (-0.1816878E+03)
 number of electron       8.0000000 magnetization 
 augmentation part        8.0000000 magnetization 

 Free energy of the ion-electron system (eV)
  ---------------------------------------------------
  alpha Z        PSCENC =         0.23743361
  Ewald energy   TEWEN  =       127.83093664
  -Hartree energ DENC   =      -243.92319832
  -exchange      EXHF   =         0.00000000
  -V(xc)+E(xc)   XCENC  =        21.96570679
  PAW double counting   =       117.05815612     -117.66307307
  entropy T*S    EENTRO =        -0.08035548
  eigenvalues    EBANDS =       -81.15897232
  atomic energy  EATOM  =       197.04175453
  Solvation  Ediel_sol  =         0.00000000
  ---------------------------------------------------
  free energy    TOTEN  =        21.30838852 eV

  energy without entropy =       21.38874400  energy(sigma->0) =       21.34856626


--------------------------------------------------------------------------------------------------------




--------------------------------------- Iteration      1(   2)  ---------------------------------------


     EDDAV:  cpu time    0.1487: real time    0.1531
       DOS:  cpu time    0.0002: real time    0.0002
    --------------------------------------------
      LOOP:  cpu time    0.1489: real time    0.1533

 eigenvalue-minimisations  :    72
 total energy-change (2. order) :-0.4088871E+02  (-0.3743996E+02)
 number of electron       8.0000000 magnetization 
 augmentation part        8.0000000 magnetization 

 Free energy of the ion-electron system (eV)
  ---------------------------------------------------
  alpha Z        PSCENC =         0.23743361
  Ewald energy   TEWEN  =       127.83093664
  -Hartree energ DENC   =      -243.92319832
  -exchange      EXHF   =         0.00000000
  -V(xc)+E(xc)   XCENC  =        21.96570679
  PAW double counting   =       117.05815612     -117.66307307
  entropy T*S    EENTRO =        -0.00000000
  eigenvalues    EBANDS =      -122.12804142
  atomic energy  EATOM  =       197.04175453
  Solvation  Ediel_sol  =         0.00000000
  ---------------------------------------------------
  free energy    TOTEN  =       -19.58032510 eV

  energy without entropy =      -19.58032510  energy(sigma->0) =      -19.58032510


--------------------------------------------------------------------------------------------------------




--------------------------------------- Iteration      1(   3)  ---------------------------------------


     EDDAV:  cpu time    0.1364: real time    0.1391
       DOS:  cpu time    0.0002: real time    0.0002
    --------------------------------------------
      LOOP:  cpu time    0.1366: real time    0.1393

 eigenvalue-minimisations  :    64
 total energy-change (2. order) :-0.7352525E+01  (-0.7352525E+01)
 number of electron       8.0000000 magnetization 
 augmentation part        8.0000000 magnetization 

 Free energy of the ion-electron system (eV)
  ---------------------------------------------------
  alpha Z        PSCENC =         0.23743361
  Ewald energy   TEWEN  =       127.83093664
  -Hartree energ DENC   =      -243.92319832
  -exchange      EXHF   =         0.00000000
  -V(xc)+E(xc)   XCENC  =        21.96570679
  PAW double counting   =       117.05815612     -117.66307307
  entropy T*S    EENTRO =        -0.00000000
  eigenvalues    EBANDS =      -129.48056601
  atomic energy  EATOM  =       197.04175453
  Solvation  Ediel_sol  =         0.00000000
  ---------------------------------------------------
  free energy    TOTEN  =       -26.93284970 eV

  energy without entropy =      -26.93284970  energy(sigma->0) =      -26.93284970


--------------------------------------------------------------------------------------------------------




--------------------------------------- Iteration      1(   4)  ---------------------------------------


     EDDAV:  cpu time    0.2032: real time    0.2121
       DOS:  cpu time    0.0002: real time    0.0002
    --------------------------------------------
      LOOP:  cpu time    0.2034: real time    0.2123

 eigenvalue-minimisations  :   112
 total energy-change (2. order) :-0.4815908E+00  (-0.4815908E+00)
 number of electron       8.0000000 magnetization 
 augmentation part        8.0000000 magnetization 

 Free energy of the ion-electron system (eV)
  ---------------------------------------------------
  alpha Z        PSCENC =         0.23743361
  Ewald energy   TEWEN  =       127.83093664
  -Hartree energ DENC   =      -243.92319832
  -exchange      EXHF   =         0.00000000
  -V(xc)+E(xc)   XCENC  =        21.96570679
  PAW double counting   =       117.05815612     -117.66307307
  entropy T*S    EENTRO =        -0.00000000
  eigenvalues    EBANDS =      -129.96215682
  atomic energy  EATOM  =       197.04175453
  Solvation  Ediel_sol  =         0.00000000
  ---------------------------------------------------
  free energy    TOTEN  =       -27.41444050 eV

  energy without entropy =      -27.41444050  energy(sigma->0) =      -27.41444050


--------------------------------------------------------------------------------------------------------




--------------------------------------- Iteration      1(   5)  ---------------------------------------


     EDDAV:  cpu time    0.1923: real time    0.1987
       DOS:  cpu time    0.0002: real time    0.0002
    CHARGE:  cpu time    0.0199: real time    0.0206
    MIXING:  cpu time    0.0046: real time    0.0047
    --------------------------------------------
      LOOP:  cpu time    0.2171: real time    0.2243

 eigenvalue-minimisations  :   104
 total energy-change (2. order) :-0.1225244E-01  (-0.1225244E-01)
 number of electron       8.0000002 magnetization 
 augmentation part        0.2224396 magnetization 

 Broyden mixing:
  rms(total) = 0.85800E+00    rms(broyden)= 0.85775E+00
  rms(prec ) = 0.12105E+01
  weight for this iteration     100.00

 Free energy of the ion-electron system (eV)
  ---------------------------------------------------
  alpha Z        PSCENC =         0.23743361
  Ewald energy   TEWEN  =       127.83093664
  -Hartree energ DENC   =      -243.92319832
  -exchange      EXHF   =         0.00000000
  -V(xc)+E(xc)   XCENC  =        21.96570679
  PAW double counting   =       117.05815612     -117.66307307
  entropy T*S    EENTRO =        -0.00000000
  eigenvalues    EBANDS =      -129.97440926
  atomic energy  EATOM  =       197.04175453
  Solvation  Ediel_sol  =         0.00000000
  ---------------------------------------------------
  free energy    TOTEN  =       -27.42669295 eV

  energy without entropy =      -27.42669295  energy(sigma->0) =      -27.42669295


--------------------------------------------------------------------------------------------------------




--------------------------------------- Iteration      1(   6)  ---------------------------------------


    POTLOK:  cpu time    0.1444: real time    0.1477
    SETDIJ:  cpu time    0.0031: real time    0.0031
    EDDIAG:  cpu time    0.0412: real time    0.0561
  RMM-DIIS:  cpu time    0.1479: real time    0.1504
    ORTHCH:  cpu time    0.0016: real time    0.0016
       DOS:  cpu time    0.0002: real time    0.0002
    CHARGE:  cpu time    0.0181: real time    0.0182
    MIXING:  cpu time    0.0055: real time    0.0071
    --------------------------------------------
      LOOP:  cpu time    0.3620: real time    0.3844

 eigenvalue-minimisations  :    64
 total energy-change (2. order) : 0.2805710E+01  (-0.5206091E+00)
 number of electron       8.0000001 magnetization 
 augmentation part        0.1961027 magnetization 

 Broyden mixing:
  rms(total) = 0.42352E+00    rms(broyden)= 0.42341E+00
  rms(prec ) = 0.54700E+00
  weight for this iteration     100.00

 eigenvalues of (default mixing * dielectric matrix)
  average eigenvalue GAMMA=   1.2997
  1.2997

 Free energy of the ion-electron system (eV)
  ---------------------------------------------------
  alpha Z        PSCENC =         0.23743361
  Ewald energy   TEWEN  =       127.83093664
  -Hartree energ DENC   =      -263.34460434
  -exchange      EXHF   =         0.00000000
  -V(xc)+E(xc)   XCENC  =        23.14525156
  PAW double counting   =       235.81296604     -236.58849963
  entropy T*S    EENTRO =        -0.00000000
  eigenvalues    EBANDS =      -108.75622096
  atomic energy  EATOM  =       197.04175453
  Solvation  Ediel_sol  =         0.00000000
  ---------------------------------------------------
  free energy    TOTEN  =       -24.62098254 eV

  energy without entropy =      -24.62098254  energy(sigma->0) =      -24.62098254


--------------------------------------------------------------------------------------------------------




--------------------------------------- Iteration      1(   7)  ---------------------------------------


    POTLOK:  cpu time    0.1345: real time    0.1378
    SETDIJ:  cpu time    0.0027: real time    0.0028
    EDDIAG:  cpu time    0.0343: real time    0.0351
  RMM-DIIS:  cpu time    0.1387: real time    0.1427
    ORTHCH:  cpu time    0.0016: real time    0.0017
       DOS:  cpu time    0.0002: real time    0.0002
    CHARGE:  cpu time    0.0163: real time    0.0167
    MIXING:  cpu time    0.0050: real time    0.0051
    --------------------------------------------
      LOOP:  cpu time    0.3332: real time    0.3420

 eigenvalue-minimisations  :    64
 total energy-change (2. order) : 0.4750895E+00  (-0.1145970E+00)
 number of electron       8.0000001 magnetization 
 augmentation part        0.1859078 magnetization 

 Broyden mixing:
  rms(total) = 0.22589E+00    rms(broyden)= 0.22583E+00
  rms(prec ) = 0.27265E+00
  weight for this iteration     100.00

 eigenvalues of (default mixing * dielectric matrix)
  average eigenvalue GAMMA=   1.8401
  1.4488  2.2314

 Free energy of the ion-electron system (eV)
  ---------------------------------------------------
  alpha Z        PSCENC =         0.23743361
  Ewald energy   TEWEN  =       127.83093664
  -Hartree energ DENC   =      -274.71652884
  -exchange      EXHF   =         0.00000000
  -V(xc)+E(xc)   XCENC  =        23.98302460
  PAW double counting   =       358.00573763     -358.81822765
  entropy T*S    EENTRO =        -0.00000000
  eigenvalues    EBANDS =       -97.71002356
  atomic energy  EATOM  =       197.04175453
  Solvation  Ediel_sol  =         0.00000000
  ---------------------------------------------------
  free energy    TOTEN  =       -24.14589303 eV

  energy without entropy =      -24.14589303  energy(sigma->0) =      -24.14589303


--------------------------------------------------------------------------------------------------------




--------------------------------------- Iteration      1(   8)  ---------------------------------------


    POTLOK:  cpu time    0.1287: real time    0.1335
    SETDIJ:  cpu time    0.0026: real time    0.0026
    EDDIAG:  cpu time    0.0341: real time    0.0350
  RMM-DIIS:  cpu time    0.1410: real time    0.1446
    ORTHCH:  cpu time    0.0016: real time    0.0016
       DOS:  cpu time    0.0002: real time    0.0002
    CHARGE:  cpu time    0.0161: real time    0.0165
    MIXING:  cpu time    0.0050: real time    0.0050
    --------------------------------------------
      LOOP:  cpu time    0.3292: real time    0.3389

 eigenvalue-minimisations  :    64
 total energy-change (2. order) : 0.1446606E+00  (-0.1630096E-01)
 number of electron       8.0000001 magnetization 
 augmentation part        0.1845438 magnetization 

 Broyden mixing:
  rms(total) = 0.22825E-01    rms(broyden)= 0.22798E-01
  rms(prec ) = 0.52110E-01
  weight for this iteration     100.00

 eigenvalues of (default mixing * dielectric matrix)
  average eigenvalue GAMMA=   1.5431
  2.2476  0.9839  1.3979

 Free energy of the ion-electron system (eV)
  ---------------------------------------------------
  alpha Z        PSCENC =         0.23743361
  Ewald energy   TEWEN  =       127.83093664
  -Hartree energ DENC   =      -280.09928717
  -exchange      EXHF   =         0.00000000
  -V(xc)+E(xc)   XCENC  =        24.51729617
  PAW double counting   =       463.76492424     -464.54575063
  entropy T*S    EENTRO =        -0.00000000
  eigenvalues    EBANDS =       -92.74853982
  atomic energy  EATOM  =       197.04175453
  Solvation  Ediel_sol  =         0.00000000
  ---------------------------------------------------
  free energy    TOTEN  =       -24.00123242 eV

  energy without entropy =      -24.00123242  energy(sigma->0) =      -24.00123242


--------------------------------------------------------------------------------------------------------




--------------------------------------- Iteration      1(   9)  ---------------------------------------


    POTLOK:  cpu time    0.1296: real time    0.1351
    SETDIJ:  cpu time    0.0029: real time    0.0029
    EDDIAG:  cpu time    0.0341: real time    0.0350
  RMM-DIIS:  cpu time    0.1413: real time    0.1449
    ORTHCH:  cpu time    0.0027: real time    0.0027
       DOS:  cpu time    0.0002: real time    0.0002
    CHARGE:  cpu time    0.0160: real time    0.0166
    MIXING:  cpu time    0.0051: real time    0.0052
    --------------------------------------------
      LOOP:  cpu time    0.3319: real time    0.3427

 eigenvalue-minimisations  :    64
 total energy-change (2. order) : 0.5603903E-02  (-0.1092523E-02)
 number of electron       8.0000001 magnetization 
 augmentation part        0.1839869 magnetization 

 Broyden mixing:
  rms(total) = 0.19378E-01    rms(broyden)= 0.19374E-01
  rms(prec ) = 0.39873E-01
  weight for this iteration     100.00

 eigenvalues of (default mixing * dielectric matrix)
  average eigenvalue GAMMA=   2.0869
  2.9893  2.9893  1.0027  1.3662

 Free energy of the ion-electron system (eV)
  ---------------------------------------------------
  alpha Z        PSCENC =         0.23743361
  Ewald energy   TEWEN  =       127.83093664
  -Hartree energ DENC   =      -281.33857946
  -exchange      EXHF   =         0.00000000
  -V(xc)+E(xc)   XCENC  =        24.58511693
  PAW double counting   =       466.66305432     -467.44664702
  entropy T*S    EENTRO =        -0.00000000
  eigenvalues    EBANDS =       -91.56869807
  atomic energy  EATOM  =       197.04175453
  Solvation  Ediel_sol  =         0.00000000
  ---------------------------------------------------
  free energy    TOTEN  =       -23.99562852 eV

  energy without entropy =      -23.99562852  energy(sigma->0) =      -23.99562852


--------------------------------------------------------------------------------------------------------




--------------------------------------- Iteration      1(  10)  ---------------------------------------


    POTLOK:  cpu time    0.1250: real time    0.1277
    SETDIJ:  cpu time    0.0027: real time    0.0027
    EDDIAG:  cpu time    0.0334: real time    0.0342
  RMM-DIIS:  cpu time    0.1495: real time    0.1541
    ORTHCH:  cpu time    0.0016: real time    0.0017
       DOS:  cpu time    0.0002: real time    0.0002
    CHARGE:  cpu time    0.0162: real time    0.0168
    MIXING:  cpu time    0.0054: real time    0.0068
    --------------------------------------------
      LOOP:  cpu time    0.3341: real time    0.3441

 eigenvalue-minimisations  :    64
 total energy-change (2. order) : 0.6243299E-02  (-0.2476248E-02)
 number of electron       8.0000001 magnetization 
 augmentation part        0.1829429 magnetization 

 Broyden mixing:
  rms(total) = 0.27603E-01    rms(broyden)= 0.27601E-01
  rms(prec ) = 0.35207E-01
  weight for this iteration     100.00

 eigenvalues of (default mixing * dielectric matrix)
  average eigenvalue GAMMA=   1.7847
  3.0640  2.4114  1.2328  1.2328  0.9822

 Free energy of the ion-electron system (eV)
  ---------------------------------------------------
  alpha Z        PSCENC =         0.23743361
  Ewald energy   TEWEN  =       127.83093664
  -Hartree energ DENC   =      -283.52465097
  -exchange      EXHF   =         0.00000000
  -V(xc)+E(xc)   XCENC  =        24.65564386
  PAW double counting   =       451.24083338     -452.02792612
  entropy T*S    EENTRO =        -0.00000000
  eigenvalues    EBANDS =       -89.44341015
  atomic energy  EATOM  =       197.04175453
  Solvation  Ediel_sol  =         0.00000000
  ---------------------------------------------------
  free energy    TOTEN  =       -23.98938522 eV

  energy without entropy =      -23.98938522  energy(sigma->0) =      -23.98938522


--------------------------------------------------------------------------------------------------------




--------------------------------------- Iteration      1(  11)  ---------------------------------------


    POTLOK:  cpu time    0.1234: real time    0.1270
    SETDIJ:  cpu time    0.0030: real time    0.0031
    EDDIAG:  cpu time    0.0344: real time    0.0353
  RMM-DIIS:  cpu time    0.1386: real time    0.1427
    ORTHCH:  cpu time    0.0015: real time    0.0016
       DOS:  cpu time    0.0002: real time    0.0002
    CHARGE:  cpu time    0.0158: real time    0.0162
    MIXING:  cpu time    0.0053: real time    0.0054
    --------------------------------------------
      LOOP:  cpu time    0.3222: real time    0.3314

 eigenvalue-minimisations  :    64
 total energy-change (2. order) :-0.7170613E-03  (-0.8496465E-03)
 number of electron       8.0000001 magnetization 
 augmentation part        0.1833195 magnetization 

 Broyden mixing:
  rms(total) = 0.86244E-02    rms(broyden)= 0.86205E-02
  rms(prec ) = 0.14345E-01
  weight for this iteration     100.00

 eigenvalues of (default mixing * dielectric matrix)
  average eigenvalue GAMMA=   2.2582
  4.7499  3.0743  2.4231  1.2687  1.0167  1.0167

 Free energy of the ion-electron system (eV)
  ---------------------------------------------------
  alpha Z        PSCENC =         0.23743361
  Ewald energy   TEWEN  =       127.83093664
  -Hartree energ DENC   =      -283.41324706
  -exchange      EXHF   =         0.00000000
  -V(xc)+E(xc)   XCENC  =        24.66965217
  PAW double counting   =       460.18023637     -460.95971871
  entropy T*S    EENTRO =        -0.00000000
  eigenvalues    EBANDS =       -89.57714984
  atomic energy  EATOM  =       197.04175453
  Solvation  Ediel_sol  =         0.00000000
  ---------------------------------------------------
  free energy    TOTEN  =       -23.99010228 eV

  energy without entropy =      -23.99010228  energy(sigma->0) =      -23.99010228


--------------------------------------------------------------------------------------------------------




--------------------------------------- Iteration      1(  12)  ---------------------------------------


    POTLOK:  cpu time    0.1174: real time    0.1201
    SETDIJ:  cpu time    0.0030: real time    0.0030
    EDDIAG:  cpu time    0.0329: real time    0.0340
  RMM-DIIS:  cpu time    0.1410: real time    0.1443
    ORTHCH:  cpu time    0.0029: real time    0.0030
       DOS:  cpu time    0.0002: real time    0.0002
    CHARGE:  cpu time    0.0156: real time    0.0160
    MIXING:  cpu time    0.0055: real time    0.0055
    --------------------------------------------
      LOOP:  cpu time    0.3184: real time    0.3262

 eigenvalue-minimisations  :    64
 total energy-change (2. order) :-0.9310633E-02  (-0.3191906E-03)
 number of electron       8.0000001 magnetization 
 augmentation part        0.1835205 magnetization 

 Broyden mixing:
  rms(total) = 0.11939E-01    rms(broyden)= 0.11938E-01
  rms(prec ) = 0.15654E-01
  weight for this iteration     100.00

 eigenvalues of (default mixing * dielectric matrix)
  average eigenvalue GAMMA=   2.0099
  4.7414  2.9094  2.4217  1.2028  1.0106  1.0106  0.7731

 Free energy of the ion-electron system (eV)
  ---------------------------------------------------
  alpha Z        PSCENC =         0.23743361
  Ewald energy   TEWEN  =       127.83093664
  -Hartree energ DENC   =      -283.62802964
  -exchange      EXHF   =         0.00000000
  -V(xc)+E(xc)   XCENC  =        24.66171325
  PAW double counting   =       457.03687697     -457.81547993
  entropy T*S    EENTRO =        -0.00000000
  eigenvalues    EBANDS =       -89.36461835
  atomic energy  EATOM  =       197.04175453
  Solvation  Ediel_sol  =         0.00000000
  ---------------------------------------------------
  free energy    TOTEN  =       -23.99941291 eV

  energy without entropy =      -23.99941291  energy(sigma->0) =      -23.99941291


--------------------------------------------------------------------------------------------------------




--------------------------------------- Iteration      1(  13)  ---------------------------------------


    POTLOK:  cpu time    0.1149: real time    0.1193
    SETDIJ:  cpu time    0.0025: real time    0.0026
    EDDIAG:  cpu time    0.0343: real time    0.0353
  RMM-DIIS:  cpu time    0.1386: real time    0.1426
    ORTHCH:  cpu time    0.0016: real time    0.0016
       DOS:  cpu time    0.0002: real time    0.0002
    CHARGE:  cpu time    0.0159: real time    0.0162
    MIXING:  cpu time    0.0056: real time    0.0058
    --------------------------------------------
      LOOP:  cpu time    0.3136: real time    0.3236

 eigenvalue-minimisations  :    64
 total energy-change (2. order) :-0.6029035E-03  (-0.1038652E-03)
 number of electron       8.0000001 magnetization 
 augmentation part        0.1832742 magnetization 

 Broyden mixing:
  rms(total) = 0.43809E-02    rms(broyden)= 0.43806E-02
  rms(prec ) = 0.61455E-02
  weight for this iteration     100.00

 eigenvalues of (default mixing * dielectric matrix)
  average eigenvalue GAMMA=   2.3869
  6.0121  3.9842  2.4564  2.3125  1.2243  1.2243  0.9885  0.8926

 Free energy of the ion-electron system (eV)
  ---------------------------------------------------
  alpha Z        PSCENC =         0.23743361
  Ewald energy   TEWEN  =       127.83093664
  -Hartree energ DENC   =      -283.81420496
  -exchange      EXHF   =         0.00000000
  -V(xc)+E(xc)   XCENC  =        24.66692093
  PAW double counting   =       456.86556138     -457.64654826
  entropy T*S    EENTRO =        -0.00000000
  eigenvalues    EBANDS =       -89.18186968
  atomic energy  EATOM  =       197.04175453
  Solvation  Ediel_sol  =         0.00000000
  ---------------------------------------------------
  free energy    TOTEN  =       -24.00001582 eV

  energy without entropy =      -24.00001582  energy(sigma->0) =      -24.00001582


--------------------------------------------------------------------------------------------------------




--------------------------------------- Iteration      1(  14)  ---------------------------------------


    POTLOK:  cpu time    0.1134: real time    0.1164
    SETDIJ:  cpu time    0.0029: real time    0.0029
    EDDIAG:  cpu time    0.0574: real time    0.0586
  RMM-DIIS:  cpu time    0.1706: real time    0.1742
    ORTHCH:  cpu time    0.0016: real time    0.0024
       DOS:  cpu time    0.0003: real time    0.0003
    CHARGE:  cpu time    0.0157: real time    0.0160
    MIXING:  cpu time    0.0068: real time    0.0069
    --------------------------------------------
      LOOP:  cpu time    0.3687: real time    0.3778

 eigenvalue-minimisations  :    64
 total energy-change (2. order) :-0.2827343E-02  (-0.1166890E-03)
 number of electron       8.0000001 magnetization 
 augmentation part        0.1831648 magnetization 

 Broyden mixing:
  rms(total) = 0.25794E-02    rms(broyden)= 0.25775E-02
  rms(prec ) = 0.34279E-02
  weight for this iteration     100.00

 eigenvalues of (default mixing * dielectric matrix)
  average eigenvalue GAMMA=   2.3449
  6.4403  3.9268  2.5952  2.3353  1.4134  1.2455  1.2455  0.9896  0.9125

 Free energy of the ion-electron system (eV)
  ---------------------------------------------------
  alpha Z        PSCENC =         0.23743361
  Ewald energy   TEWEN  =       127.83093664
  -Hartree energ DENC   =      -283.81141712
  -exchange      EXHF   =         0.00000000
  -V(xc)+E(xc)   XCENC  =        24.65714772
  PAW double counting   =       456.23801394     -457.02018251
  entropy T*S    EENTRO =        -0.00000000
  eigenvalues    EBANDS =       -89.17652997
  atomic energy  EATOM  =       197.04175453
  Solvation  Ediel_sol  =         0.00000000
  ---------------------------------------------------
  free energy    TOTEN  =       -24.00284316 eV

  energy without entropy =      -24.00284316  energy(sigma->0) =      -24.00284316


--------------------------------------------------------------------------------------------------------




--------------------------------------- Iteration      1(  15)  ---------------------------------------


    POTLOK:  cpu time    0.1126: real time    0.1167
    SETDIJ:  cpu time    0.0028: real time    0.0029
    EDDIAG:  cpu time    0.0328: real time    0.0337
  RMM-DIIS:  cpu time    0.1413: real time    0.1457
    ORTHCH:  cpu time    0.0015: real time    0.0016
       DOS:  cpu time    0.0002: real time    0.0002
    CHARGE:  cpu time    0.0157: real time    0.0161
    MIXING:  cpu time    0.0057: real time    0.0059
    --------------------------------------------
      LOOP:  cpu time    0.3127: real time    0.3226

 eigenvalue-minimisations  :    64
 total energy-change (2. order) :-0.2924231E-03  (-0.4103891E-05)
 number of electron       8.0000001 magnetization 
 augmentation part        0.1831317 magnetization 

 Broyden mixing:
  rms(total) = 0.14524E-02    rms(broyden)= 0.14522E-02
  rms(prec ) = 0.19488E-02
  weight for this iteration     100.00

 eigenvalues of (default mixing * dielectric matrix)
  average eigenvalue GAMMA=   2.5254
  7.5420  4.8161  2.7850  2.6104  2.0725  1.2636  1.2636  1.0005  1.0005  0.9001

 Free energy of the ion-electron system (eV)
  ---------------------------------------------------
  alpha Z        PSCENC =         0.23743361
  Ewald energy   TEWEN  =       127.83093664
  -Hartree energ DENC   =      -283.80847151
  -exchange      EXHF   =         0.00000000
  -V(xc)+E(xc)   XCENC  =        24.65755533
  PAW double counting   =       456.37598592     -457.15761086
  entropy T*S    EENTRO =        -0.00000000
  eigenvalues    EBANDS =       -89.18071925
  atomic energy  EATOM  =       197.04175453
  Solvation  Ediel_sol  =         0.00000000
  ---------------------------------------------------
  free energy    TOTEN  =       -24.00313558 eV

  energy without entropy =      -24.00313558  energy(sigma->0) =      -24.00313558


--------------------------------------------------------------------------------------------------------




--------------------------------------- Iteration      1(  16)  ---------------------------------------


    POTLOK:  cpu time    0.1142: real time    0.1181
    SETDIJ:  cpu time    0.0028: real time    0.0028
    EDDIAG:  cpu time    0.0333: real time    0.0341
  RMM-DIIS:  cpu time    0.1384: real time    0.1424
    ORTHCH:  cpu time    0.0015: real time    0.0016
       DOS:  cpu time    0.0002: real time    0.0002
    CHARGE:  cpu time    0.0156: real time    0.0161
    MIXING:  cpu time    0.0060: real time    0.0061
    --------------------------------------------
      LOOP:  cpu time    0.3119: real time    0.3213

 eigenvalue-minimisations  :    64
 total energy-change (2. order) :-0.2051749E-03  (-0.6901866E-05)
 number of electron       8.0000001 magnetization 
 augmentation part        0.1831664 magnetization 

 Broyden mixing:
  rms(total) = 0.39242E-03    rms(broyden)= 0.39201E-03
  rms(prec ) = 0.57057E-03
  weight for this iteration     100.00

 eigenvalues of (default mixing * dielectric matrix)
  average eigenvalue GAMMA=   2.5131
  7.7537  4.8432  3.3135  2.4029  1.9976  1.9976  1.2350  1.2350  1.0149  0.9255
  0.9255

 Free energy of the ion-electron system (eV)
  ---------------------------------------------------
  alpha Z        PSCENC =         0.23743361
  Ewald energy   TEWEN  =       127.83093664
  -Hartree energ DENC   =      -283.77374887
  -exchange      EXHF   =         0.00000000
  -V(xc)+E(xc)   XCENC  =        24.65627447
  PAW double counting   =       456.36018382     -457.14137702
  entropy T*S    EENTRO =        -0.00000000
  eigenvalues    EBANDS =       -89.21479794
  atomic energy  EATOM  =       197.04175453
  Solvation  Ediel_sol  =         0.00000000
  ---------------------------------------------------
  free energy    TOTEN  =       -24.00334076 eV

  energy without entropy =      -24.00334076  energy(sigma->0) =      -24.00334076


--------------------------------------------------------------------------------------------------------




--------------------------------------- Iteration      1(  17)  ---------------------------------------


    POTLOK:  cpu time    0.1175: real time    0.1213
    SETDIJ:  cpu time    0.0027: real time    0.0027
    EDDIAG:  cpu time    0.0340: real time    0.0350
  RMM-DIIS:  cpu time    0.1409: real time    0.1447
    ORTHCH:  cpu time    0.0015: real time    0.0016
       DOS:  cpu time    0.0002: real time    0.0002
    CHARGE:  cpu time    0.0159: real time    0.0163
    MIXING:  cpu time    0.0063: real time    0.0063
    --------------------------------------------
      LOOP:  cpu time    0.3190: real time    0.3280

 eigenvalue-minimisations  :    64
 total energy-change (2. order) :-0.4682732E-04  (-0.1985941E-05)
 number of electron       8.0000001 magnetization 
 augmentation part        0.1831390 magnetization 

 Broyden mixing:
  rms(total) = 0.58217E-03    rms(broyden)= 0.58214E-03
  rms(prec ) = 0.80450E-03
  weight for this iteration     100.00

 eigenvalues of (default mixing * dielectric matrix)
  average eigenvalue GAMMA=   2.5901
  8.4864  5.2986  3.8994  2.5205  2.5205  1.8842  1.2854  1.2854  1.0797  0.9910
  0.9152  0.9152

 Free energy of the ion-electron system (eV)
  ---------------------------------------------------
  alpha Z        PSCENC =         0.23743361
  Ewald energy   TEWEN  =       127.83093664
  -Hartree energ DENC   =      -283.81319687
  -exchange      EXHF   =         0.00000000
  -V(xc)+E(xc)   XCENC  =        24.65811921
  PAW double counting   =       456.34292080     -457.12439925
  entropy T*S    EENTRO =        -0.00000000
  eigenvalues    EBANDS =       -89.17695627
  atomic energy  EATOM  =       197.04175453
  Solvation  Ediel_sol  =         0.00000000
  ---------------------------------------------------
  free energy    TOTEN  =       -24.00338758 eV

  energy without entropy =      -24.00338758  energy(sigma->0) =      -24.00338758


--------------------------------------------------------------------------------------------------------




--------------------------------------- Iteration      1(  18)  ---------------------------------------


    POTLOK:  cpu time    0.1193: real time    0.1227
    SETDIJ:  cpu time    0.0026: real time    0.0027
    EDDIAG:  cpu time    0.0333: real time    0.0343
  RMM-DIIS:  cpu time    0.1382: real time    0.1420
    ORTHCH:  cpu time    0.0015: real time    0.0016
       DOS:  cpu time    0.0002: real time    0.0002
    CHARGE:  cpu time    0.0172: real time    0.0178
    MIXING:  cpu time    0.0064: real time    0.0066
    --------------------------------------------
      LOOP:  cpu time    0.3188: real time    0.3278

 eigenvalue-minimisations  :    64
 total energy-change (2. order) :-0.7568962E-05  (-0.7005579E-06)
 number of electron       8.0000001 magnetization 
 augmentation part        0.1831549 magnetization 

 Broyden mixing:
  rms(total) = 0.98038E-04    rms(broyden)= 0.97871E-04
  rms(prec ) = 0.13070E-03
  weight for this iteration     100.00

 eigenvalues of (default mixing * dielectric matrix)
  average eigenvalue GAMMA=   2.6435
  8.5632  5.5401  3.8706  3.3215  2.3954  2.3954  1.8449  1.2605  1.2605  0.9087
  0.9783  0.9783  1.0483

 Free energy of the ion-electron system (eV)
  ---------------------------------------------------
  alpha Z        PSCENC =         0.23743361
  Ewald energy   TEWEN  =       127.83093664
  -Hartree energ DENC   =      -283.79278095
  -exchange      EXHF   =         0.00000000
  -V(xc)+E(xc)   XCENC  =        24.65718460
  PAW double counting   =       456.33949146     -457.12076778
  entropy T*S    EENTRO =        -0.00000000
  eigenvalues    EBANDS =       -89.19664727
  atomic energy  EATOM  =       197.04175453
  Solvation  Ediel_sol  =         0.00000000
  ---------------------------------------------------
  free energy    TOTEN  =       -24.00339515 eV

  energy without entropy =      -24.00339515  energy(sigma->0) =      -24.00339515


--------------------------------------------------------------------------------------------------------




--------------------------------------- Iteration      1(  19)  ---------------------------------------


    POTLOK:  cpu time    0.1202: real time    0.1241
    SETDIJ:  cpu time    0.0028: real time    0.0029
    EDDIAG:  cpu time    0.0330: real time    0.0338
  RMM-DIIS:  cpu time    0.1126: real time    0.1159
    ORTHCH:  cpu time    0.0016: real time    0.0016
       DOS:  cpu time    0.0002: real time    0.0002
    CHARGE:  cpu time    0.0158: real time    0.0161
    MIXING:  cpu time    0.0064: real time    0.0065
    --------------------------------------------
      LOOP:  cpu time    0.2926: real time    0.3011

 eigenvalue-minimisations  :    48
 total energy-change (2. order) :-0.4293709E-05  (-0.4479916E-07)
 number of electron       8.0000001 magnetization 
 augmentation part        0.1831587 magnetization 

 Broyden mixing:
  rms(total) = 0.94387E-04    rms(broyden)= 0.94354E-04
  rms(prec ) = 0.13248E-03
  weight for this iteration     100.00

 eigenvalues of (default mixing * dielectric matrix)
  average eigenvalue GAMMA=   2.5712
  8.6189  5.6368  3.9301  3.6996  2.4340  2.4340  1.9615  1.2616  1.2616  1.0410
  0.9298  0.9298  0.9293  0.9293

 Free energy of the ion-electron system (eV)
  ---------------------------------------------------
  alpha Z        PSCENC =         0.23743361
  Ewald energy   TEWEN  =       127.83093664
  -Hartree energ DENC   =      -283.78901254
  -exchange      EXHF   =         0.00000000
  -V(xc)+E(xc)   XCENC  =        24.65685286
  PAW double counting   =       456.31294650     -457.09422062
  entropy T*S    EENTRO =        -0.00000000
  eigenvalues    EBANDS =       -89.20009043
  atomic energy  EATOM  =       197.04175453
  Solvation  Ediel_sol  =         0.00000000
  ---------------------------------------------------
  free energy    TOTEN  =       -24.00339945 eV

  energy without entropy =      -24.00339945  energy(sigma->0) =      -24.00339945


--------------------------------------------------------------------------------------------------------




--------------------------------------- Iteration      1(  20)  ---------------------------------------


    POTLOK:  cpu time    0.1191: real time    0.1228
    SETDIJ:  cpu time    0.0028: real time    0.0030
    EDDIAG:  cpu time    0.0330: real time    0.0338
  RMM-DIIS:  cpu time    0.1122: real time    0.1155
    ORTHCH:  cpu time    0.0016: real time    0.0016
       DOS:  cpu time    0.0002: real time    0.0002
    --------------------------------------------
      LOOP:  cpu time    0.2687: real time    0.2767

 eigenvalue-minimisations  :    48
 total energy-change (2. order) :-0.8195673E-06  (-0.1447609E-07)
 number of electron       8.0000001 magnetization 
 augmentation part        0.1831587 magnetization 

 Free energy of the ion-electron system (eV)
  ---------------------------------------------------
  alpha Z        PSCENC =         0.23743361
  Ewald energy   TEWEN  =       127.83093664
  -Hartree energ DENC   =      -283.79134039
  -exchange      EXHF   =         0.00000000
  -V(xc)+E(xc)   XCENC  =        24.65693694
  PAW double counting   =       456.31289159     -457.09420107
  entropy T*S    EENTRO =        -0.00000000
  eigenvalues    EBANDS =       -89.19781212
  atomic energy  EATOM  =       197.04175453
  Solvation  Ediel_sol  =         0.00000000
  ---------------------------------------------------
  free energy    TOTEN  =       -24.00340027 eV

  energy without entropy =      -24.00340027  energy(sigma->0) =      -24.00340027


--------------------------------------------------------------------------------------------------------




 average (electrostatic) potential at core
  the test charge radii are     0.5201  0.6991
  (the norm of the test charge is              1.0000)
       1 -41.4031       2 -41.3012       3 -41.6191       4 -41.4808       5 -58.0133
 
 
 
 E-fermi :  -8.2038     XC(G=0):  -0.6883     alpha+bet : -0.2065


 k-point     1 :       0.2500    0.2500    0.2500
  band No.  band energies     occupation 
      1     -16.8297      2.00000
      2      -9.3189      2.00000
      3      -9.3046      2.00000
      4      -9.1456      2.00000
      5      -0.3291      0.00000
      6       0.5501      0.00000
      7       0.6518      0.00000
      8       0.7092      0.00000

 k-point     2 :      -0.2500    0.2500    0.2500
  band No.  band energies     occupation 
      1     -16.8297      2.00000
      2      -9.3188      2.00000
      3      -9.3046      2.00000
      4      -9.1457      2.00000
      5      -0.3287      0.00000
      6       0.5451      0.00000
      7       0.6511      0.00000
      8       0.7077      0.00000

 k-point     3 :       0.2500   -0.2500    0.2500
  band No.  band energies     occupation 
      1     -16.8298      2.00000
      2      -9.3189      2.00000
      3      -9.3046      2.00000
      4      -9.1457      2.00000
      5      -0.3262      0.00000
      6       0.5414      0.00000
      7       0.6463      0.00000
      8       0.6999      0.00000

 k-point     4 :      -0.2500   -0.2500    0.2500
  band No.  band energies     occupation 
      1     -16.8298      2.00000
      2      -9.3189      2.00000
      3      -9.3046      2.00000
      4      -9.1457      2.00000
      5      -0.3273      0.00000
      6       0.5479      0.00000
      7       0.6504      0.00000
      8       0.6992      0.00000


--------------------------------------------------------------------------------------------------------


 soft charge-density along one line, spin component           1
         0         1         2         3         4         5         6         7         8         9
 total charge-density along one line
 
 pseudopotential strength for first ion, spin component:           1
 -2.340  -4.032  -0.001  -0.001   0.001
 -4.032  -6.862  -0.003  -0.004   0.002
 -0.001  -0.003  -0.338   0.002  -0.001
 -0.001  -0.004   0.002  -0.337  -0.001
  0.001   0.002  -0.001  -0.001  -0.339
 total augmentation occupancy for first ion, spin component:           1
  3.495  -0.631   0.224   0.322  -0.136
 -0.631   0.128  -0.042  -0.060   0.025
  0.224  -0.042   0.021   0.017  -0.007
  0.322  -0.060   0.017   0.033  -0.011
 -0.136   0.025  -0.007  -0.011   0.013


------------------------ aborting loop because EDIFF is reached ----------------------------------------


    CHARGE:  cpu time    0.0162: real time    0.0163
    FORLOC:  cpu time    0.0137: real time    0.0137
    FORNL :  cpu time    0.0214: real time    0.0216
    STRESS:  cpu time    0.1585: real time    0.1603
    FORCOR:  cpu time    0.1275: real time    0.1285
    FORHAR:  cpu time    0.0403: real time    0.0406
    MIXING:  cpu time    0.0067: real time    0.0067
    OFIELD:  cpu time    0.0000: real time    0.0000

  FORCE on cell =-STRESS in cart. coord.  units (eV):
  Direction    XX          YY          ZZ          XY          YZ          ZX
  --------------------------------------------------------------------------------------
  Alpha Z     0.23743     0.23743     0.23743
  Ewald      40.99383    44.51594    42.32113     1.46194     0.03545    -0.03328
  Hartree    93.00041    97.31434    93.47917     0.11354     0.22622    -0.04755
  E(xc)     -27.10793   -27.13733   -27.11197     0.00199     0.00162    -0.00034
  Local    -193.03535  -200.69144  -194.46147    -1.09116    -0.36282     0.09232
  n-local   -15.63098   -15.79037   -15.70199    -0.05308     0.01593     0.00018
  augment     0.12211     0.11787     0.11856    -0.00460     0.00108    -0.00013
  Kinetic    99.98745   101.55076   100.26101    -0.05265    -0.07861     0.00790
  Fock        0.00000     0.00000     0.00000     0.00000     0.00000     0.00000
  -------------------------------------------------------------------------------------
  Total      -1.43303     0.11720    -0.85812     0.37597    -0.16114     0.01910
  in kB      -2.25032     0.18404    -1.34752     0.59040    -0.25304     0.02999
  external pressure =       -1.14 kB  Pullay stress =        0.00 kB

  kinetic pressure (ideal gas correction) =      0.00 kB
  total pressure  =     -1.14 kB
  Total+kin.    -2.250       0.184      -1.348       0.590      -0.253       0.030

 VOLUME and BASIS-vectors are now :
 -----------------------------------------------------------------------------
  energy-cutoff  :      400.00
  volume of cell :     1020.29
      direct lattice vectors                 reciprocal lattice vectors
    10.249434350  0.000000000  0.000000000     0.097566360 -0.000121076  0.000182446
     0.012123523  9.769505160  0.000000000     0.000000000  0.102359330 -0.001242496
    -0.018900409  0.123685309 10.189445205     0.000000000  0.000000000  0.098140770

  length of vectors
    10.249434350  9.769512682 10.190213387     0.097566606  0.102366871  0.098140770


 FORCES acting on ions
    electron-ion (+dipol)            ewald-force                    non-local-force                 convergence-correction
 -----------------------------------------------------------------------------------------------
   -.170E+02 0.283E+02 0.404E+02   0.185E+02 -.310E+02 -.441E+02   -.174E+01 0.285E+01 0.412E+01   0.736E-04 -.767E-04 -.137E-03
   0.509E+02 -.598E+01 0.342E+01   -.550E+02 0.650E+01 -.370E+01   0.503E+01 -.588E+00 0.340E+00   -.180E-03 0.288E-04 -.128E-04
   -.247E+02 -.473E+02 0.154E+01   0.275E+02 0.529E+02 -.173E+01   -.269E+01 -.506E+01 0.167E+00   0.929E-04 0.140E-03 -.492E-05
   -.121E+02 0.234E+02 -.455E+02   0.133E+02 -.259E+02 0.501E+02   -.127E+01 0.240E+01 -.473E+01   0.581E-04 -.645E-04 0.159E-03
   0.367E+01 0.214E+01 0.380E+00   -.425E+01 -.252E+01 -.500E+00   -.176E+00 -.138E+00 -.147E+00   0.100E-03 0.633E-04 -.246E-05
 -----------------------------------------------------------------------------------------------
   0.846E+00 0.544E+00 0.243E+00   -.178E-14 0.355E-14 -.711E-14   -.846E+00 -.543E+00 -.243E+00   0.145E-03 0.906E-04 0.160E-05
 
 
 POSITION                                       TOTAL-FORCE (eV/Angst)
 -----------------------------------------------------------------------------------
      5.51881      4.02016      3.67772        -0.195403      0.098584      0.383625
      4.03885      4.75382      4.46267         0.919430     -0.072949      0.061808
      5.65748      5.57859      4.50662         0.105903      0.559712     -0.020031
      5.41063      4.13201      5.49044        -0.079724     -0.070275     -0.158425
      5.15571      4.62114      4.53800        -0.750455     -0.514409     -0.267005
 -----------------------------------------------------------------------------------
    total drift:                               -0.000249      0.000662     -0.000027


--------------------------------------------------------------------------------------------------------



  FREE ENERGIE OF THE ION-ELECTRON SYSTEM (eV)
  ---------------------------------------------------
  free  energy   TOTEN  =       -24.00340027 eV

  energy  without entropy=      -24.00340027  energy(sigma->0) =      -24.00340027
 


--------------------------------------------------------------------------------------------------------


    POTLOK:  cpu time    0.1278: real time    0.1298


--------------------------------------------------------------------------------------------------------


 stress matrix after NEB project (eV)
     -1.43303      0.37597      0.01910
      0.37597      0.11720     -0.16114
      0.01910     -0.16114     -0.85812
  FORCES: max atom, RMS     0.948204    0.679697
  FORCE total and by dimension    1.519849    0.919430
  Stress total and by dimension    1.771738    1.433033
           RANDOM_SEED =         581357907                0                0
           RANDOM_SEED =         581357907               30                0
   IONSTEP:  cpu time    0.0037: real time    0.0100

  ENERGY OF THE ELECTRON-ION-THERMOSTAT SYSTEM (eV)
  ---------------------------------------------------
% ion-electron   TOTEN  =       -24.003400  see above
  kinetic energy EKIN   =         0.000452
  kin. lattice  EKIN_LAT=         0.000000  (temperature    0.87 K)
  nose potential ES     =         0.000000
  nose kinetic   EPS    =         0.000000
  ---------------------------------------------------
  total energy   ETOTAL =       -24.002948 eV

  maximum distance moved by ions :      0.22E-03

    WAVPRE:  cpu time    0.0388: real time    0.0393
    FEWALD:  cpu time    0.0011: real time    0.0011
    ORTHCH:  cpu time    0.0087: real time    0.0088
     LOOP+:  cpu time    6.4479: real time    6.6786


--------------------------------------- Iteration      2(   1)  ---------------------------------------


    POTLOK:  cpu time    0.1249: real time    0.1265
    SETDIJ:  cpu time    0.0030: real time    0.0030
     EDDAV:  cpu time    0.1795: real time    0.1813
       DOS:  cpu time    0.0003: real time    0.0003
    CHARGE:  cpu time    0.0161: real time    0.0163
    MIXING:  cpu time    0.0049: real time    0.0049
    --------------------------------------------
      LOOP:  cpu time    0.3287: real time    0.3322

 eigenvalue-minimisations  :    96
 total energy-change (2. order) :-0.3467234E-02  (-0.3764682E-03)
 number of electron       8.0000001 magnetization 
 augmentation part        0.1833444 magnetization 

 Broyden mixing:
  rms(total) = 0.27221E-02    rms(broyden)= 0.27197E-02
  rms(prec ) = 0.32704E-02
  weight for this iteration     100.00

 Free energy of the ion-electron system (eV)
  ---------------------------------------------------
  alpha Z        PSCENC =         0.23743361
  Ewald energy   TEWEN  =       127.95061303
  -Hartree energ DENC   =      -283.86850209
  -exchange      EXHF   =         0.00000000
  -V(xc)+E(xc)   XCENC  =        24.66081317
  PAW double counting   =       456.31699813     -457.09832182
  entropy T*S    EENTRO =        -0.00000000
  eigenvalues    EBANDS =       -89.24765526
  atomic energy  EATOM  =       197.04175453
  Solvation  Ediel_sol  =         0.00000000
  ---------------------------------------------------
  free energy    TOTEN  =       -24.00686668 eV

  energy without entropy =      -24.00686668  energy(sigma->0) =      -24.00686668


--------------------------------------------------------------------------------------------------------




--------------------------------------- Iteration      2(   2)  ---------------------------------------


    POTLOK:  cpu time    0.1306: real time    0.1339
    SETDIJ:  cpu time    0.0028: real time    0.0028
    EDDIAG:  cpu time    0.0338: real time    0.0340
  RMM-DIIS:  cpu time    0.1420: real time    0.1449
    ORTHCH:  cpu time    0.0018: real time    0.0018
       DOS:  cpu time    0.0002: real time    0.0002
    CHARGE:  cpu time    0.0158: real time    0.0160
    MIXING:  cpu time    0.0047: real time    0.0049
    --------------------------------------------
      LOOP:  cpu time    0.3317: real time    0.3386

 eigenvalue-minimisations  :    64
 total energy-change (2. order) : 0.5680399E-05  (-0.9769019E-05)
 number of electron       8.0000001 magnetization 
 augmentation part        0.1833144 magnetization 

 Broyden mixing:
  rms(total) = 0.16085E-02    rms(broyden)= 0.16078E-02
  rms(prec ) = 0.18762E-02
  weight for this iteration     100.00

 eigenvalues of (default mixing * dielectric matrix)
  average eigenvalue GAMMA=   1.9001
  1.9001

 Free energy of the ion-electron system (eV)
  ---------------------------------------------------
  alpha Z        PSCENC =         0.23743361
  Ewald energy   TEWEN  =       127.95061303
  -Hartree energ DENC   =      -283.89251477
  -exchange      EXHF   =         0.00000000
  -V(xc)+E(xc)   XCENC  =        24.66207546
  PAW double counting   =       456.60405839     -457.38565526
  entropy T*S    EENTRO =        -0.00000000
  eigenvalues    EBANDS =       -89.22462601
  atomic energy  EATOM  =       197.04175453
  Solvation  Ediel_sol  =         0.00000000
  ---------------------------------------------------
  free energy    TOTEN  =       -24.00686100 eV

  energy without entropy =      -24.00686100  energy(sigma->0) =      -24.00686100


--------------------------------------------------------------------------------------------------------




--------------------------------------- Iteration      2(   3)  ---------------------------------------


    POTLOK:  cpu time    0.1290: real time    0.1305
    SETDIJ:  cpu time    0.0029: real time    0.0029
    EDDIAG:  cpu time    0.0353: real time    0.0356
  RMM-DIIS:  cpu time    0.1416: real time    0.1431
    ORTHCH:  cpu time    0.0016: real time    0.0017
       DOS:  cpu time    0.0002: real time    0.0002
    CHARGE:  cpu time    0.0160: real time    0.0161
    MIXING:  cpu time    0.0051: real time    0.0051
    --------------------------------------------
      LOOP:  cpu time    0.3316: real time    0.3351

 eigenvalue-minimisations  :    64
 total energy-change (2. order) : 0.9520755E-06  (-0.2089752E-05)
 number of electron       8.0000001 magnetization 
 augmentation part        0.1832890 magnetization 

 Broyden mixing:
  rms(total) = 0.44435E-03    rms(broyden)= 0.44391E-03
  rms(prec ) = 0.53363E-03
  weight for this iteration     100.00

 eigenvalues of (default mixing * dielectric matrix)
  average eigenvalue GAMMA=   1.6083
  1.2029  2.0136

 Free energy of the ion-electron system (eV)
  ---------------------------------------------------
  alpha Z        PSCENC =         0.23743361
  Ewald energy   TEWEN  =       127.95061303
  -Hartree energ DENC   =      -283.90701985
  -exchange      EXHF   =         0.00000000
  -V(xc)+E(xc)   XCENC  =        24.66287583
  PAW double counting   =       456.87146977     -457.65323948
  entropy T*S    EENTRO =        -0.00000000
  eigenvalues    EBANDS =       -89.21074749
  atomic energy  EATOM  =       197.04175453
  Solvation  Ediel_sol  =         0.00000000
  ---------------------------------------------------
  free energy    TOTEN  =       -24.00686005 eV

  energy without entropy =      -24.00686005  energy(sigma->0) =      -24.00686005


--------------------------------------------------------------------------------------------------------




--------------------------------------- Iteration      2(   4)  ---------------------------------------


    POTLOK:  cpu time    0.1294: real time    0.1308
    SETDIJ:  cpu time    0.0027: real time    0.0027
    EDDIAG:  cpu time    0.0340: real time    0.0345
  RMM-DIIS:  cpu time    0.1178: real time    0.1189
    ORTHCH:  cpu time    0.0016: real time    0.0016
       DOS:  cpu time    0.0002: real time    0.0002
    --------------------------------------------
      LOOP:  cpu time    0.2858: real time    0.2887

 eigenvalue-minimisations  :    48
 total energy-change (2. order) : 0.1745319E-06  (-0.7060852E-07)
 number of electron       8.0000001 magnetization 
 augmentation part        0.1832890 magnetization 

 Free energy of the ion-electron system (eV)
  ---------------------------------------------------
  alpha Z        PSCENC =         0.23743361
  Ewald energy   TEWEN  =       127.95061303
  -Hartree energ DENC   =      -283.90209326
  -exchange      EXHF   =         0.00000000
  -V(xc)+E(xc)   XCENC  =        24.66267806
  PAW double counting   =       456.91450829     -457.69621042
  entropy T*S    EENTRO =        -0.00000000
  eigenvalues    EBANDS =       -89.21554372
  atomic energy  EATOM  =       197.04175453
  Solvation  Ediel_sol  =         0.00000000
  ---------------------------------------------------
  free energy    TOTEN  =       -24.00685987 eV

  energy without entropy =      -24.00685987  energy(sigma->0) =      -24.00685987


--------------------------------------------------------------------------------------------------------




 average (electrostatic) potential at core
  the test charge radii are     0.5201  0.6991
  (the norm of the test charge is              1.0000)
       1 -41.4096       2 -41.3157       3 -41.6062       4 -41.4818       5 -58.0091
 
 
 
 E-fermi :  -8.2101     XC(G=0):  -0.6965     alpha+bet : -0.2065


 k-point     1 :       0.2500    0.2500    0.2500
  band No.  band energies     occupation 
      1     -16.8328      2.00000
      2      -9.3178      2.00000
      3      -9.3058      2.00000
      4      -9.1513      2.00000
      5      -0.3307      0.00000
      6       0.5472      0.00000
      7       0.6483      0.00000
      8       0.6996      0.00000

 k-point     2 :      -0.2500    0.2500    0.2500
  band No.  band energies     occupation 
      1     -16.8328      2.00000
      2      -9.3178      2.00000
      3      -9.3058      2.00000
      4      -9.1513      2.00000
      5      -0.3304      0.00000
      6       0.5415      0.00000
      7       0.6482      0.00000
      8       0.6985      0.00000

 k-point     3 :       0.2500   -0.2500    0.2500
  band No.  band energies     occupation 
      1     -16.8328      2.00000
      2      -9.3178      2.00000
      3      -9.3058      2.00000
      4      -9.1514      2.00000
      5      -0.3278      0.00000
      6       0.5375      0.00000
      7       0.6431      0.00000
      8       0.6909      0.00000

 k-point     4 :      -0.2500   -0.2500    0.2500
  band No.  band energies     occupation 
      1     -16.8328      2.00000
      2      -9.3178      2.00000
      3      -9.3059      2.00000
      4      -9.1513      2.00000
      5      -0.3288      0.00000
      6       0.5440      0.00000
      7       0.6473      0.00000
      8       0.6900      0.00000


--------------------------------------------------------------------------------------------------------


 soft charge-density along one line, spin component           1
         0         1         2         3         4         5         6         7         8         9
 total charge-density along one line
 
 pseudopotential strength for first ion, spin component:           1
 -2.340  -4.032  -0.001  -0.001   0.001
 -4.032  -6.862  -0.003  -0.004   0.002
 -0.001  -0.003  -0.338   0.002  -0.001
 -0.001  -0.004   0.002  -0.337  -0.001
  0.001   0.002  -0.001  -0.001  -0.339
 total augmentation occupancy for first ion, spin component:           1
  3.499  -0.631   0.224   0.323  -0.136
 -0.631   0.128  -0.042  -0.060   0.025
  0.224  -0.042   0.021   0.017  -0.007
  0.323  -0.060   0.017   0.033  -0.011
 -0.136   0.025  -0.007  -0.011   0.013


------------------------ aborting loop because EDIFF is reached ----------------------------------------


    CHARGE:  cpu time    0.0161: real time    0.0163
    FORLOC:  cpu time    0.0138: real time    0.0139
    FORNL :  cpu time    0.0210: real time    0.0211
    STRESS:  cpu time    0.1591: real time    0.1602
    FORCOR:  cpu time    0.1288: real time    0.1297
    FORHAR:  cpu time    0.0420: real time    0.0429
    MIXING:  cpu time    0.0052: real time    0.0053
    OFIELD:  cpu time    0.0000: real time    0.0000

  FORCE on cell =-STRESS in cart. coord.  units (eV):
  Direction    XX          YY          ZZ          XY          YZ          ZX
  --------------------------------------------------------------------------------------
  Alpha Z     0.23743     0.23743     0.23743
  Ewald      41.07480    44.53388    42.34190     1.38683     0.05044    -0.03293
  Hartree    93.01018    97.38350    93.50411     0.12054     0.22145    -0.04642
  E(xc)     -27.11447   -27.14286   -27.11829     0.00212     0.00152    -0.00032
  Local    -193.09079  -200.80541  -194.50116    -1.05656    -0.36418     0.09006
  n-local   -15.64809   -15.79657   -15.71449    -0.04899     0.01462     0.00029
  augment     0.12163     0.11803     0.11830    -0.00426     0.00100    -0.00012
  Kinetic   100.04246   101.55288   100.30233    -0.06022    -0.07370     0.00725
  Fock        0.00000     0.00000     0.00000     0.00000     0.00000     0.00000
  -------------------------------------------------------------------------------------
  Total      -1.36685     0.08089    -0.82987     0.33947    -0.14886     0.01781
  in kB      -2.14639     0.12702    -1.30316     0.53308    -0.23376     0.02797
  external pressure =       -1.11 kB  Pullay stress =        0.00 kB

  kinetic pressure (ideal gas correction) =      0.00 kB
  total pressure  =     -1.11 kB
  Total+kin.    -2.143       0.128      -1.302       0.533      -0.234       0.028

 VOLUME and BASIS-vectors are now :
 -----------------------------------------------------------------------------
  energy-cutoff  :      400.00
  volume of cell :     1020.29
      direct lattice vectors                 reciprocal lattice vectors
    10.249434350  0.000000000  0.000000000     0.097566360 -0.000121076  0.000182446
     0.012123523  9.769505160  0.000000000     0.000000000  0.102359330 -0.001242496
    -0.018900409  0.123685309 10.189445205     0.000000000  0.000000000  0.098140770

  length of vectors
    10.249434350  9.769512682 10.190213387     0.097566606  0.102366871  0.098140770


 FORCES acting on ions
    electron-ion (+dipol)            ewald-force                    non-local-force                 convergence-correction
 -----------------------------------------------------------------------------------------------
   -.170E+02 0.283E+02 0.404E+02   0.185E+02 -.311E+02 -.442E+02   -.175E+01 0.285E+01 0.413E+01   -.593E-03 0.267E-05 0.251E-03
   0.510E+02 -.600E+01 0.342E+01   -.552E+02 0.653E+01 -.371E+01   0.507E+01 -.593E+00 0.342E+00   0.117E-03 -.333E-03 -.960E-04
   -.247E+02 -.472E+02 0.154E+01   0.275E+02 0.528E+02 -.172E+01   -.268E+01 -.504E+01 0.166E+00   -.662E-03 -.760E-03 -.719E-04
   -.121E+02 0.234E+02 -.455E+02   0.133E+02 -.259E+02 0.501E+02   -.127E+01 0.240E+01 -.473E+01   -.504E-03 -.301E-04 -.487E-03
   0.348E+01 0.202E+01 0.339E+00   -.402E+01 -.236E+01 -.449E+00   -.145E+00 -.114E+00 -.138E+00   -.164E-02 -.983E-03 -.415E-03
 -----------------------------------------------------------------------------------------------
[...]
      5.65892      5.60826      4.50569        -0.237556     -0.350614      0.017680
      5.40538      4.12571      5.48047         0.009097     -0.070829      0.053531
      5.15281      4.61924      4.53678         0.885644      0.525432      0.196138
 -----------------------------------------------------------------------------------
    total drift:                                0.000060      0.000146     -0.000084


--------------------------------------------------------------------------------------------------------



  FREE ENERGIE OF THE ION-ELECTRON SYSTEM (eV)
  ---------------------------------------------------
  free  energy   TOTEN  =       -24.01571603 eV

  energy  without entropy=      -24.01571603  energy(sigma->0) =      -24.01571603
 
 d Force =-0.5948482E-02[-0.712E-02,-0.477E-02]  d Energy =-0.5943002E-02-0.548E-05
 d Force =-0.4290374E+00[-0.432E+00,-0.426E+00]  d Ewald  =-0.4290314E+00-0.601E-05


--------------------------------------------------------------------------------------------------------


    POTLOK:  cpu time    0.1251: real time    0.1295


--------------------------------------------------------------------------------------------------------


 stress matrix after NEB project (eV)
      0.32287     -0.39058     -0.01127
     -0.39058     -0.54801      0.11880
     -0.01127      0.11880     -0.14675
  FORCES: max atom, RMS     1.048291    0.628640
  FORCE total and by dimension    1.405681    0.885644
  Stress total and by dimension    0.871600    0.548015
           RANDOM_SEED =         581357907               30                0
   IONSTEP:  cpu time    0.0002: real time    0.0002

  ENERGY OF THE ELECTRON-ION-THERMOSTAT SYSTEM (eV)
  ---------------------------------------------------
% ion-electron   TOTEN  =       -24.015716  see above
  kinetic energy EKIN   =         0.012564
  kin. lattice  EKIN_LAT=         0.000000  (temperature   24.30 K)
  nose potential ES     =         0.000000
  nose kinetic   EPS    =         0.000000
  ---------------------------------------------------
  total energy   ETOTAL =       -24.003152 eV

  maximum distance moved by ions :      0.45E-03

    WAVPRE:  cpu time    0.0454: real time    0.0465
    FEWALD:  cpu time    0.0011: real time    0.0011
    ORTHCH:  cpu time    0.0088: real time    0.0090
 Prediction of Wavefunctions ALPHA= 2.195 BETA=-1.234
     LOOP+:  cpu time    1.8371: real time    1.8940


--------------------------------------- Iteration     10(   1)  ---------------------------------------


    POTLOK:  cpu time    0.1245: real time    0.1274
    SETDIJ:  cpu time    0.0027: real time    0.0027
     EDDAV:  cpu time    0.2532: real time    0.2642
       DOS:  cpu time    0.0002: real time    0.0002
    CHARGE:  cpu time    0.0161: real time    0.0165
    MIXING:  cpu time    0.0056: real time    0.0057
    --------------------------------------------
      LOOP:  cpu time    0.4024: real time    0.4169

 eigenvalue-minimisations  :    80
 total energy-change (2. order) : 0.5406916E-02  (-0.4769148E-04)
 number of electron       8.0000001 magnetization 
 augmentation part        0.1871040 magnetization 

 Broyden mixing:
  rms(total) = 0.19656E-03    rms(broyden)= 0.19562E-03
  rms(prec ) = 0.21404E-03
  weight for this iteration     100.00

 Free energy of the ion-electron system (eV)
  ---------------------------------------------------
  alpha Z        PSCENC =         0.23743361
  Ewald energy   TEWEN  =       131.18484779
  -Hartree energ DENC   =      -286.74306608
  -exchange      EXHF   =         0.00000000
  -V(xc)+E(xc)   XCENC  =        24.81308646
  PAW double counting   =       476.63914604     -477.43221893
  entropy T*S    EENTRO =        -0.00000000
  eigenvalues    EBANDS =       -89.75129198
  atomic energy  EATOM  =       197.04175453
  Solvation  Ediel_sol  =         0.00000000
  ---------------------------------------------------
  free energy    TOTEN  =       -24.01030855 eV

  energy without entropy =      -24.01030855  energy(sigma->0) =      -24.01030855


--------------------------------------------------------------------------------------------------------




--------------------------------------- Iteration     10(   2)  ---------------------------------------


    POTLOK:  cpu time    0.1363: real time    0.1405
    SETDIJ:  cpu time    0.0021: real time    0.0028
    EDDIAG:  cpu time    0.0328: real time    0.0335
  RMM-DIIS:  cpu time    0.1395: real time    0.1430
    ORTHCH:  cpu time    0.0015: real time    0.0016
       DOS:  cpu time    0.0002: real time    0.0002
    CHARGE:  cpu time    0.0154: real time    0.0159
    MIXING:  cpu time    0.0048: real time    0.0049
    --------------------------------------------
      LOOP:  cpu time    0.3325: real time    0.3424

 eigenvalue-minimisations  :    60
 total energy-change (2. order) :-0.1223188E-05  (-0.9288042E-06)
 number of electron       8.0000001 magnetization 
 augmentation part        0.1871109 magnetization 

 Broyden mixing:
  rms(total) = 0.24957E-03    rms(broyden)= 0.24929E-03
  rms(prec ) = 0.26333E-03
  weight for this iteration     100.00

 eigenvalues of (default mixing * dielectric matrix)
  average eigenvalue GAMMA=   0.3882
  0.3882

 Free energy of the ion-electron system (eV)
  ---------------------------------------------------
  alpha Z        PSCENC =         0.23743361
  Ewald energy   TEWEN  =       131.18484779
  -Hartree energ DENC   =      -286.74292366
  -exchange      EXHF   =         0.00000000
  -V(xc)+E(xc)   XCENC  =        24.81305240
  PAW double counting   =       476.63495462     -477.42800159
  entropy T*S    EENTRO =        -0.00000000
  eigenvalues    EBANDS =       -89.75142748
  atomic energy  EATOM  =       197.04175453
  Solvation  Ediel_sol  =         0.00000000
  ---------------------------------------------------
  free energy    TOTEN  =       -24.01030978 eV

  energy without entropy =      -24.01030978  energy(sigma->0) =      -24.01030978


--------------------------------------------------------------------------------------------------------




--------------------------------------- Iteration     10(   3)  ---------------------------------------


    POTLOK:  cpu time    0.1228: real time    0.1253
    SETDIJ:  cpu time    0.0026: real time    0.0026
    EDDIAG:  cpu time    0.0337: real time    0.0345
  RMM-DIIS:  cpu time    0.1158: real time    0.1186
    ORTHCH:  cpu time    0.0016: real time    0.0016
       DOS:  cpu time    0.0002: real time    0.0002
    CHARGE:  cpu time    0.0154: real time    0.0160
    MIXING:  cpu time    0.0049: real time    0.0050
    --------------------------------------------
      LOOP:  cpu time    0.2969: real time    0.3038

 eigenvalue-minimisations  :    48
 total energy-change (2. order) :-0.4149513E-07  (-0.1657966E-07)
 number of electron       8.0000001 magnetization 
 augmentation part        0.1871111 magnetization 

 Broyden mixing:
  rms(total) = 0.21990E-03    rms(broyden)= 0.21989E-03
  rms(prec ) = 0.23182E-03
  weight for this iteration     100.00

 eigenvalues of (default mixing * dielectric matrix)
  average eigenvalue GAMMA=   1.6610
  1.1777  2.1443

 Free energy of the ion-electron system (eV)
  ---------------------------------------------------
  alpha Z        PSCENC =         0.23743361
  Ewald energy   TEWEN  =       131.18484779
  -Hartree energ DENC   =      -286.74272699
  -exchange      EXHF   =         0.00000000
  -V(xc)+E(xc)   XCENC  =        24.81304527
  PAW double counting   =       476.60737434     -477.40042135
  entropy T*S    EENTRO =        -0.00000000
  eigenvalues    EBANDS =       -89.75161702
  atomic energy  EATOM  =       197.04175453
  Solvation  Ediel_sol  =         0.00000000
  ---------------------------------------------------
  free energy    TOTEN  =       -24.01030982 eV

  energy without entropy =      -24.01030982  energy(sigma->0) =      -24.01030982


--------------------------------------------------------------------------------------------------------




--------------------------------------- Iteration     10(   4)  ---------------------------------------


    POTLOK:  cpu time    0.1237: real time    0.1270
    SETDIJ:  cpu time    0.0027: real time    0.0028
    EDDIAG:  cpu time    0.0336: real time    0.0343
  RMM-DIIS:  cpu time    0.1106: real time    0.1139
    ORTHCH:  cpu time    0.0015: real time    0.0015
       DOS:  cpu time    0.0002: real time    0.0002
    --------------------------------------------
      LOOP:  cpu time    0.2723: real time    0.2797

 eigenvalue-minimisations  :    43
 total energy-change (2. order) :-0.8173652E-06  (-0.7281489E-08)
 number of electron       8.0000001 magnetization 
 augmentation part        0.1871111 magnetization 

 Free energy of the ion-electron system (eV)
  ---------------------------------------------------
  alpha Z        PSCENC =         0.23743361
  Ewald energy   TEWEN  =       131.18484779
  -Hartree energ DENC   =      -286.74191154
  -exchange      EXHF   =         0.00000000
  -V(xc)+E(xc)   XCENC  =        24.81302274
  PAW double counting   =       476.45435641     -477.24740730
  entropy T*S    EENTRO =        -0.00000000
  eigenvalues    EBANDS =       -89.75240687
  atomic energy  EATOM  =       197.04175453
  Solvation  Ediel_sol  =         0.00000000
  ---------------------------------------------------
  free energy    TOTEN  =       -24.01031063 eV

  energy without entropy =      -24.01031063  energy(sigma->0) =      -24.01031063


--------------------------------------------------------------------------------------------------------




 average (electrostatic) potential at core
  the test charge radii are     0.5201  0.6991
  (the norm of the test charge is              1.0000)
       1 -41.5782       2 -41.7190       3 -41.3517       4 -41.5087       5 -57.9262
 
 
 
 E-fermi :  -8.2551     XC(G=0):  -0.6796     alpha+bet : -0.2065


 k-point     1 :       0.2500    0.2500    0.2500
  band No.  band energies     occupation 
      1     -16.9356      2.00000
      2      -9.4126      2.00000
      3      -9.3302      2.00000
      4      -9.1977      2.00000
      5      -0.3073      0.00000
      6       0.5591      0.00000
      7       0.6682      0.00000
      8       0.7111      0.00000

 k-point     2 :      -0.2500    0.2500    0.2500
  band No.  band energies     occupation 
      1     -16.9356      2.00000
      2      -9.4126      2.00000
      3      -9.3302      2.00000
      4      -9.1978      2.00000
      5      -0.3079      0.00000
      6       0.5596      0.00000
      7       0.6640      0.00000
      8       0.7138      0.00000

 k-point     3 :       0.2500   -0.2500    0.2500
  band No.  band energies     occupation 
      1     -16.9356      2.00000
      2      -9.4126      2.00000
      3      -9.3302      2.00000
      4      -9.1977      2.00000
      5      -0.3049      0.00000
      6       0.5530      0.00000
      7       0.6589      0.00000
      8       0.7068      0.00000

 k-point     4 :      -0.2500   -0.2500    0.2500
  band No.  band energies     occupation 
      1     -16.9356      2.00000
      2      -9.4126      2.00000
      3      -9.3303      2.00000
      4      -9.1978      2.00000
      5      -0.3051      0.00000
      6       0.5551      0.00000
      7       0.6661      0.00000
      8       0.7018      0.00000


--------------------------------------------------------------------------------------------------------


 soft charge-density along one line, spin component           1
         0         1         2         3         4         5         6         7         8         9
 total charge-density along one line
 
 pseudopotential strength for first ion, spin component:           1
 -2.342  -4.035  -0.001  -0.001   0.001
 -4.035  -6.867  -0.003  -0.004   0.002
 -0.001  -0.003  -0.337   0.002  -0.001
 -0.001  -0.004   0.002  -0.335  -0.001
  0.001   0.002  -0.001  -0.001  -0.338
 total augmentation occupancy for first ion, spin component:           1
  3.589  -0.644   0.244   0.342  -0.145
 -0.644   0.130  -0.045  -0.063   0.027
  0.244  -0.045   0.023   0.019  -0.008
  0.342  -0.063   0.019   0.037  -0.011
 -0.145   0.027  -0.008  -0.011   0.014


------------------------ aborting loop because EDIFF is reached ----------------------------------------


    CHARGE:  cpu time    0.0149: real time    0.0155
    FORLOC:  cpu time    0.0136: real time    0.0137
    FORNL :  cpu time    0.0218: real time    0.0221
    STRESS:  cpu time    0.1607: real time    0.1635
    FORCOR:  cpu time    0.1267: real time    0.1312
    FORHAR:  cpu time    0.0424: real time    0.0434
    MIXING:  cpu time    0.0048: real time    0.0049
    OFIELD:  cpu time    0.0000: real time    0.0000

  FORCE on cell =-STRESS in cart. coord.  units (eV):
  Direction    XX          YY          ZZ          XY          YZ          ZX
  --------------------------------------------------------------------------------------
  Alpha Z     0.23743     0.23743     0.23743
  Ewald      42.76404    45.92061    42.50016    -0.59125     0.35412    -0.01853
  Hartree    93.25850    99.32687    94.15698     0.17466     0.09830    -0.01915
  E(xc)     -27.28901   -27.28831   -27.28642     0.00304    -0.00085     0.00020
  Local    -194.11509  -204.54384  -195.26682     0.06995    -0.33870     0.03467
  n-local   -16.11536   -16.00032   -16.06026     0.04415    -0.01522     0.00222
  augment     0.10626     0.11868     0.11227     0.00371    -0.00121    -0.00001
  Kinetic   101.66004   101.62631   101.53664    -0.15052     0.04770    -0.01361
  Fock        0.00000     0.00000     0.00000     0.00000     0.00000     0.00000
  -------------------------------------------------------------------------------------
  Total       0.50681    -0.60256    -0.07001    -0.44626     0.14415    -0.01421
  in kB       0.79585    -0.94622    -0.10993    -0.70076     0.22636    -0.02232
  external pressure =       -0.09 kB  Pullay stress =        0.00 kB

  kinetic pressure (ideal gas correction) =      0.01 kB
  total pressure  =     -0.08 kB
  Total+kin.     0.813      -0.938      -0.104      -0.701       0.226      -0.023

 VOLUME and BASIS-vectors are now :
 -----------------------------------------------------------------------------
  energy-cutoff  :      400.00
  volume of cell :     1020.29
      direct lattice vectors                 reciprocal lattice vectors
    10.249434350  0.000000000  0.000000000     0.097566360 -0.000121076  0.000182446
     0.012123523  9.769505160  0.000000000     0.000000000  0.102359330 -0.001242496
    -0.018900409  0.123685309 10.189445205     0.000000000  0.000000000  0.098140770

  length of vectors
    10.249434350  9.769512682 10.190213387     0.097566606  0.102366871  0.098140770


 FORCES acting on ions
    electron-ion (+dipol)            ewald-force                    non-local-force                 convergence-correction
 -----------------------------------------------------------------------------------------------
   -.174E+02 0.294E+02 0.411E+02   0.193E+02 -.328E+02 -.458E+02   -.185E+01 0.311E+01 0.436E+01   0.309E-04 -.252E-04 -.469E-04
   0.537E+02 -.665E+01 0.355E+01   -.604E+02 0.751E+01 -.399E+01   0.586E+01 -.729E+00 0.389E+00   -.448E-04 0.747E-05 -.119E-05
   -.237E+02 -.465E+02 0.145E+01   0.258E+02 0.507E+02 -.158E+01   -.239E+01 -.467E+01 0.146E+00   0.437E-04 0.560E-04 -.132E-05
   -.122E+02 0.240E+02 -.458E+02   0.135E+02 -.266E+02 0.506E+02   -.128E+01 0.250E+01 -.477E+01   0.214E-04 -.199E-04 0.532E-04
   -.131E+01 -.886E+00 -.591E+00   0.180E+01 0.116E+01 0.732E+00   0.544E+00 0.324E+00 0.100E+00   -.448E-04 0.197E-04 -.173E-04
 -----------------------------------------------------------------------------------------------
   -.890E+00 -.538E+00 -.225E+00   -.178E-14 -.355E-14 0.000E+00   0.890E+00 0.538E+00 0.225E+00   0.636E-05 0.381E-04 -.135E-04
 
 
 POSITION                                       TOTAL-FORCE (eV/Angst)
 -----------------------------------------------------------------------------------
      5.50573      4.02163      3.70250         0.125229     -0.242695     -0.287433
      4.09365      4.75103      4.46649        -0.924759      0.130919     -0.054071
      5.65758      5.61126      4.50564        -0.247750     -0.418415      0.020034
      5.40448      4.12412      5.47899         0.019089     -0.065097      0.080432
      5.15274      4.61919      4.53665         1.028113      0.595221      0.240916
 -----------------------------------------------------------------------------------
    total drift:                               -0.000076     -0.000067     -0.000123


--------------------------------------------------------------------------------------------------------



  FREE ENERGIE OF THE ION-ELECTRON SYSTEM (eV)
  ---------------------------------------------------
  free  energy   TOTEN  =       -24.01031063 eV

  energy  without entropy=      -24.01031063  energy(sigma->0) =      -24.01031063
 
 d Force =-0.5408805E-02[-0.603E-02,-0.479E-02]  d Energy =-0.5405398E-02-0.341E-05
 d Force =-0.3215244E+00[-0.323E+00,-0.320E+00]  d Ewald  =-0.3215224E+00-0.200E-05


--------------------------------------------------------------------------------------------------------


    POTLOK:  cpu time    0.1260: real time    0.1293


--------------------------------------------------------------------------------------------------------


 stress matrix after NEB project (eV)
      0.50681     -0.44626     -0.01421
     -0.44626     -0.60256      0.14415
     -0.01421      0.14415     -0.07001
  FORCES: max atom, RMS     1.212166    0.741581
  FORCE total and by dimension    1.658226    1.028113
  Stress total and by dimension    1.032032    0.602564
           RANDOM_SEED =         581357907               30                0
   IONSTEP:  cpu time    0.0002: real time    0.0002

  ENERGY OF THE ELECTRON-ION-THERMOSTAT SYSTEM (eV)
  ---------------------------------------------------
% ion-electron   TOTEN  =       -24.010311  see above
  kinetic energy EKIN   =         0.007286
  kin. lattice  EKIN_LAT=         0.000000  (temperature   14.09 K)
  nose potential ES     =         0.000000
  nose kinetic   EPS    =         0.000000
  ---------------------------------------------------
  total energy   ETOTAL =       -24.003025 eV

  maximum distance moved by ions :      0.28E-03


 mean value of Nose-termostat <S>:     1.000 mean value of <T> :    26.278
 mean temperature <T/S>/<1/S>  :    26.278

    WAVPRE:  cpu time    0.0498: real time    0.0509
    FEWALD:  cpu time    0.0013: real time    0.0013
    ORTHCH:  cpu time    0.0087: real time    0.0089
 Prediction of Wavefunctions ALPHA= 2.118 BETA=-1.146
    POTLOK:  cpu time    0.1284: real time    0.1326
    EDDIAG:  cpu time    0.0335: real time    0.0343
     LOOP+:  cpu time    2.0422: real time    2.1001
    4ORBIT:  cpu time    0.0000: real time    0.0010

 total amount of memory used by VASP MPI-rank0    54759. kBytes
=======================================================================

   base      :      30000. kBytes
   nonl-proj :       2751. kBytes
   fftplans  :       7847. kBytes
   grid      :      12367. kBytes
   one-center:          6. kBytes
   wavefun   :       1788. kBytes
 
  
  
 General timing and accounting informations for this job:
 ========================================================
  
                  Total CPU time used (sec):       26.476
                            User time (sec):       23.073
                          System time (sec):        3.403
                         Elapsed time (sec):       27.739
  
                   Maximum memory used (kb):      178052.
                   Average memory used (kb):           0.
  
                          Minor page faults:       252843
                          Major page faults:           97
                 Voluntary context switches:          578
