unknown system                          
           1
    10.271496    0.000000    0.000000
    -0.052719    9.770314    0.000000
    -0.069563    0.201016   10.290709
   H    C 
   4   1
Direct configuration=     1
   0.53817317  0.40685280  0.36060091
   0.39384193  0.48000878  0.43877098
   0.55267831  0.56544414  0.44243730
   0.52812777  0.41661366  0.53957859
   0.50264945  0.46686972  0.44542303
Direct configuration=     2
   0.53809379  0.40691650  0.36077917
   0.39406132  0.47999785  0.43877357
   0.55266509  0.56553346  0.44242565
   0.52810233  0.41659822  0.53948297
   0.50264102  0.46685918  0.44541691
Direct configuration=     3
   0.53793958  0.40703749  0.36112431
   0.39448506  0.47997766  0.43877877
   0.55263590  0.56570626  0.44240267
   0.52805305  0.41656643  0.53929770
   0.50262511  0.46683904  0.44540508
Direct configuration=     4
   0.53772001  0.40720267  0.36161452
   0.39508373  0.47995133  0.43878523
   0.55258660  0.56594968  0.44236933
   0.52798299  0.41651540  0.53903344
   0.50260348  0.46681147  0.44538850
Direct configuration=     5
   0.53744890  0.40739296  0.36221803
   0.39581441  0.47992344  0.43879102
   0.55251200  0.56624663  0.44232700
   0.52789656  0.41644084  0.53870577
   0.50257863  0.46677943  0.44536858
Direct configuration=     6
   0.53714371  0.40758430  0.36289464
   0.39662270  0.47989981  0.43879370
   0.55240638  0.56657670  0.44227733
   0.52779916  0.41633772  0.53833392
   0.50255365  0.46674657  0.44534712
Direct configuration=     7
   0.53682455  0.40774917  0.36359809
   0.39744594  0.47988704  0.43879051
   0.55226441  0.56691828  0.44222214
   0.52769682  0.41620065  0.53793963
   0.50253202  0.46671688  0.44532624
Direct configuration=     8
   0.53651272  0.40785863  0.36427913
   0.39821749  0.47989205  0.43877857
   0.55208193  0.56725027  0.44216326
   0.52759571  0.41602444  0.53754579
   0.50251735  0.46669438  0.44530822
Direct configuration=     9
   0.53622897  0.40788500  0.36488962
   0.39887253  0.47992127  0.43875516
   0.55185663  0.56755373  0.44210246
   0.52750164  0.41580483  0.53717465
   0.50251303  0.46668277  0.44529531
Direct configuration=    10
   0.53599150  0.40780499  0.36538696
   0.39935444  0.47997974  0.43871810
   0.55158860  0.56781336  0.44204132
   0.52741958  0.41553906  0.53684634
   0.50252183  0.46668508  0.44528941
