    5    5   10    1
  0.2064636E+03  0.1014341E-08  0.1025400E-08  0.9928883E-09  0.5000000E-15
  1.000000000000000E-004
  CAR 
 unknown system                          
      8      4      8
 
  0.2500000E+00  0.2500000E+00  0.2500000E+00  0.2500000E+00
    1      -16.965186   1.000000
    2       -9.435414   1.000000
    3       -9.305540   1.000000
    4       -9.245337   1.000000
    5       -0.310296   0.000000
    6        0.558744   0.000000
    7        0.663205   0.000000
    8        0.695745   0.000000
 
 -0.2500000E+00  0.2500000E+00  0.2500000E+00  0.2500000E+00
    1      -16.965219   1.000000
    2       -9.435475   1.000000
    3       -9.305572   1.000000
    4       -9.245369   1.000000
    5       -0.305686   0.000000
    6        0.533703   0.000000
    7        0.661203   0.000000
    8        0.687446   0.000000
 
  0.2500000E+00 -0.2500000E+00  0.2500000E+00  0.2500000E+00
    1      -16.965214   1.000000
    2       -9.435501   1.000000
    3       -9.305646   1.000000
    4       -9.245442   1.000000
    5       -0.302486   0.000000
    6        0.526999   0.000000
    7        0.658913   0.000000
    8        0.676211   0.000000
 
 -0.2500000E+00 -0.2500000E+00  0.2500000E+00  0.2500000E+00
    1      -16.965225   1.000000
    2       -9.435529   1.000000
    3       -9.305590   1.000000
    4       -9.245376   1.000000
    5       -0.307160   0.000000
    6        0.547486   0.000000
    7        0.660576   0.000000
    8        0.688842   0.000000
