   5   5   0   0
  0.1924150E+03  0.9719245E-09  0.1020550E-08  0.9704556E-09  0.5000000E-15
  1.000000000000000E-004
  CAR 
 unknown system                          
      2.72688224    -18.76081984  301     -8.16015020      1.00000000
    -18.761  0.0000E+00  0.0000E+00
    -18.689  0.0000E+00  0.0000E+00
    -18.618  0.0000E+00  0.0000E+00
    -18.546  0.0000E+00  0.0000E+00
    -18.474  0.0000E+00  0.0000E+00
    -18.403  0.0000E+00  0.0000E+00
    -18.331  0.0000E+00  0.0000E+00
    -18.259  0.0000E+00  0.0000E+00
    -18.188  0.0000E+00  0.0000E+00
    -18.116  0.0000E+00  0.0000E+00
    -18.045  0.0000E+00  0.0000E+00
    -17.973  0.0000E+00  0.0000E+00
    -17.901  0.1439E-13  0.1038E-14
    -17.830  0.7946E-12  0.5838E-13
    -17.758  0.3426E-10  0.2531E-11
    -17.686  0.1142E-08  0.8495E-10
    -17.615  0.2944E-07  0.2210E-08
    -17.543  0.5872E-06  0.4459E-07
    -17.472  0.9062E-05  0.6985E-06
    -17.400  0.1082E-03  0.8508E-05
    -17.328  0.1001E-02  0.8072E-04
    -17.257  0.7167E-02  0.5978E-03
    -17.185  0.3976E-01  0.3466E-02
    -17.113  0.1709E+00  0.1580E-01
    -17.042  0.5695E+00  0.5688E-01
    -16.970  0.1471E+01  0.1630E+00
    -16.899  0.2949E+01  0.3756E+00
    -16.827  0.4584E+01  0.7062E+00
    -16.755  0.5530E+01  0.1105E+01
    -16.684  0.5178E+01  0.1478E+01
    -16.612  0.3764E+01  0.1749E+01
    -16.540  0.2124E+01  0.1903E+01
    -16.469  0.9312E+00  0.1970E+01
    -16.397  0.3170E+00  0.1992E+01
    -16.326  0.8383E-01  0.1999E+01
    -16.254  0.1722E-01  0.2000E+01
    -16.182  0.2748E-02  0.2000E+01
    -16.111  0.3408E-03  0.2000E+01
    -16.039  0.3284E-04  0.2000E+01
    -15.967  0.2458E-05  0.2000E+01
    -15.896  0.1430E-06  0.2000E+01
    -15.824  0.6465E-08  0.2000E+01
    -15.753  0.2271E-09  0.2000E+01
    -15.681  0.6198E-11  0.2000E+01
    -15.609  0.1318E-12  0.2000E+01
    -15.538  0.1858E-14  0.2000E+01
    -15.466  0.0000E+00  0.2000E+01
    -15.394  0.0000E+00  0.2000E+01
    -15.323  0.0000E+00  0.2000E+01
    -15.251  0.0000E+00  0.2000E+01
    -15.180  0.0000E+00  0.2000E+01
    -15.108  0.0000E+00  0.2000E+01
    -15.036  0.0000E+00  0.2000E+01
    -14.965  0.0000E+00  0.2000E+01
    -14.893  0.0000E+00  0.2000E+01
    -14.821  0.0000E+00  0.2000E+01
    -14.750  0.0000E+00  0.2000E+01
    -14.678  0.0000E+00  0.2000E+01
    -14.607  0.0000E+00  0.2000E+01
    -14.535  0.0000E+00  0.2000E+01
    -14.463  0.0000E+00  0.2000E+01
    -14.392  0.0000E+00  0.2000E+01
    -14.320  0.0000E+00  0.2000E+01
    -14.248  0.0000E+00  0.2000E+01
    -14.177  0.0000E+00  0.2000E+01
    -14.105  0.0000E+00  0.2000E+01
    -14.034  0.0000E+00  0.2000E+01
    -13.962  0.0000E+00  0.2000E+01
    -13.890  0.0000E+00  0.2000E+01
    -13.819  0.0000E+00  0.2000E+01
    -13.747  0.0000E+00  0.2000E+01
    -13.675  0.0000E+00  0.2000E+01
    -13.604  0.0000E+00  0.2000E+01
    -13.532  0.0000E+00  0.2000E+01
    -13.461  0.0000E+00  0.2000E+01
    -13.389  0.0000E+00  0.2000E+01
    -13.317  0.0000E+00  0.2000E+01
    -13.246  0.0000E+00  0.2000E+01
    -13.174  0.0000E+00  0.2000E+01
    -13.102  0.0000E+00  0.2000E+01
    -13.031  0.0000E+00  0.2000E+01
    -12.959  0.0000E+00  0.2000E+01
    -12.888  0.0000E+00  0.2000E+01
    -12.816  0.0000E+00  0.2000E+01
    -12.744  0.0000E+00  0.2000E+01
    -12.673  0.0000E+00  0.2000E+01
    -12.601  0.0000E+00  0.2000E+01
    -12.529  0.0000E+00  0.2000E+01
    -12.458  0.0000E+00  0.2000E+01
    -12.386  0.0000E+00  0.2000E+01
    -12.315  0.0000E+00  0.2000E+01
    -12.243  0.0000E+00  0.2000E+01
    -12.171  0.0000E+00  0.2000E+01
    -12.100  0.0000E+00  0.2000E+01
    -12.028  0.0000E+00  0.2000E+01
    -11.956  0.0000E+00  0.2000E+01
    -11.885  0.0000E+00  0.2000E+01
    -11.813  0.0000E+00  0.2000E+01
    -11.742  0.0000E+00  0.2000E+01
    -11.670  0.0000E+00  0.2000E+01
    -11.598  0.0000E+00  0.2000E+01
    -11.527  0.0000E+00  0.2000E+01
    -11.455  0.0000E+00  0.2000E+01
    -11.383  0.0000E+00  0.2000E+01
    -11.312  0.0000E+00  0.2000E+01
    -11.240  0.0000E+00  0.2000E+01
    -11.168  0.0000E+00  0.2000E+01
    -11.097  0.0000E+00  0.2000E+01
    -11.025  0.0000E+00  0.2000E+01
    -10.954  0.0000E+00  0.2000E+01
    -10.882  0.0000E+00  0.2000E+01
    -10.810  0.0000E+00  0.2000E+01
    -10.739  0.0000E+00  0.2000E+01
    -10.667  0.0000E+00  0.2000E+01
    -10.595  0.0000E+00  0.2000E+01
    -10.524  0.9288E-15  0.2000E+01
    -10.452  0.5978E-13  0.2000E+01
    -10.381  0.2890E-11  0.2000E+01
    -10.309  0.1089E-09  0.2000E+01
    -10.237  0.3198E-08  0.2000E+01
    -10.166  0.7329E-07  0.2000E+01
    -10.094  0.1312E-05  0.2000E+01
    -10.022  0.1835E-04  0.2000E+01
     -9.951  0.2009E-03  0.2000E+01
     -9.879  0.1722E-02  0.2000E+01
     -9.808  0.1158E-01  0.2001E+01
     -9.736  0.6115E-01  0.2005E+01
     -9.664  0.2545E+00  0.2024E+01
     -9.593  0.8368E+00  0.2084E+01
     -9.521  0.2186E+01  0.2242E+01
     -9.449  0.4572E+01  0.2571E+01
     -9.378  0.7747E+01  0.3130E+01
     -9.306  0.1082E+02  0.3910E+01
     -9.235  0.1273E+02  0.4828E+01
     -9.163  0.1290E+02  0.5758E+01
     -9.091  0.1141E+02  0.6581E+01
     -9.020  0.8769E+01  0.7213E+01
     -8.948  0.5741E+01  0.7627E+01
     -8.876  0.3126E+01  0.7852E+01
     -8.805  0.1385E+01  0.7952E+01
     -8.733  0.4913E+00  0.7987E+01
     -8.662  0.1382E+00  0.7997E+01
     -8.590  0.3057E-01  0.8000E+01
     -8.518  0.5301E-02  0.8000E+01
     -8.447  0.7178E-03  0.8000E+01
     -8.375  0.7573E-04  0.8000E+01
     -8.303  0.6216E-05  0.8000E+01
     -8.232  0.3964E-06  0.8000E+01
     -8.160  0.1962E-07  0.8000E+01
     -8.089  0.7527E-09  0.8000E+01
     -8.017  0.2238E-10  0.8000E+01
     -7.945  0.5155E-12  0.8000E+01
     -7.874  0.8583E-14  0.8000E+01
     -7.802  0.0000E+00  0.8000E+01
     -7.730  0.0000E+00  0.8000E+01
     -7.659  0.0000E+00  0.8000E+01
     -7.587  0.0000E+00  0.8000E+01
     -7.516  0.0000E+00  0.8000E+01
     -7.444  0.0000E+00  0.8000E+01
     -7.372  0.0000E+00  0.8000E+01
     -7.301  0.0000E+00  0.8000E+01
     -7.229  0.0000E+00  0.8000E+01
     -7.157  0.0000E+00  0.8000E+01
     -7.086  0.0000E+00  0.8000E+01
     -7.014  0.0000E+00  0.8000E+01
     -6.943  0.0000E+00  0.8000E+01
     -6.871  0.0000E+00  0.8000E+01
     -6.799  0.0000E+00  0.8000E+01
     -6.728  0.0000E+00  0.8000E+01
     -6.656  0.0000E+00  0.8000E+01
     -6.584  0.0000E+00  0.8000E+01
     -6.513  0.0000E+00  0.8000E+01
     -6.441  0.0000E+00  0.8000E+01
     -6.370  0.0000E+00  0.8000E+01
     -6.298  0.0000E+00  0.8000E+01
     -6.226  0.0000E+00  0.8000E+01
     -6.155  0.0000E+00  0.8000E+01
     -6.083  0.0000E+00  0.8000E+01
     -6.011  0.0000E+00  0.8000E+01
     -5.940  0.0000E+00  0.8000E+01
     -5.868  0.0000E+00  0.8000E+01
     -5.797  0.0000E+00  0.8000E+01
     -5.725  0.0000E+00  0.8000E+01
     -5.653  0.0000E+00  0.8000E+01
     -5.582  0.0000E+00  0.8000E+01
     -5.510  0.0000E+00  0.8000E+01
     -5.438  0.0000E+00  0.8000E+01
     -5.367  0.0000E+00  0.8000E+01
     -5.295  0.0000E+00  0.8000E+01
     -5.224  0.0000E+00  0.8000E+01
     -5.152  0.0000E+00  0.8000E+01
     -5.080  0.0000E+00  0.8000E+01
     -5.009  0.0000E+00  0.8000E+01
     -4.937  0.0000E+00  0.8000E+01
     -4.865  0.0000E+00  0.8000E+01
     -4.794  0.0000E+00  0.8000E+01
     -4.722  0.0000E+00  0.8000E+01
     -4.651  0.0000E+00  0.8000E+01
     -4.579  0.0000E+00  0.8000E+01
     -4.507  0.0000E+00  0.8000E+01
     -4.436  0.0000E+00  0.8000E+01
     -4.364  0.0000E+00  0.8000E+01
     -4.292  0.0000E+00  0.8000E+01
     -4.221  0.0000E+00  0.8000E+01
     -4.149  0.0000E+00  0.8000E+01
     -4.078  0.0000E+00  0.8000E+01
     -4.006  0.0000E+00  0.8000E+01
     -3.934  0.0000E+00  0.8000E+01
     -3.863  0.0000E+00  0.8000E+01
     -3.791  0.0000E+00  0.8000E+01
     -3.719  0.0000E+00  0.8000E+01
     -3.648  0.0000E+00  0.8000E+01
     -3.576  0.0000E+00  0.8000E+01
     -3.505  0.0000E+00  0.8000E+01
     -3.433  0.0000E+00  0.8000E+01
     -3.361  0.0000E+00  0.8000E+01
     -3.290  0.0000E+00  0.8000E+01
     -3.218  0.0000E+00  0.8000E+01
     -3.146  0.0000E+00  0.8000E+01
     -3.075  0.0000E+00  0.8000E+01
     -3.003  0.0000E+00  0.8000E+01
     -2.932  0.0000E+00  0.8000E+01
     -2.860  0.0000E+00  0.8000E+01
     -2.788  0.0000E+00  0.8000E+01
     -2.717  0.0000E+00  0.8000E+01
     -2.645  0.0000E+00  0.8000E+01
     -2.573  0.0000E+00  0.8000E+01
     -2.502  0.0000E+00  0.8000E+01
     -2.430  0.0000E+00  0.8000E+01
     -2.359  0.0000E+00  0.8000E+01
     -2.287  0.0000E+00  0.8000E+01
     -2.215  0.0000E+00  0.8000E+01
     -2.144  0.0000E+00  0.8000E+01
     -2.072  0.0000E+00  0.8000E+01
     -2.000  0.0000E+00  0.8000E+01
     -1.929  0.0000E+00  0.8000E+01
     -1.857  0.0000E+00  0.8000E+01
     -1.786  0.0000E+00  0.8000E+01
     -1.714  0.0000E+00  0.8000E+01
     -1.642  0.0000E+00  0.8000E+01
     -1.571  0.0000E+00  0.8000E+01
     -1.499  0.6581E-15  0.8000E+01
     -1.427  0.4162E-13  0.8000E+01
     -1.356  0.2044E-11  0.8000E+01
     -1.284  0.7813E-10  0.8000E+01
     -1.213  0.2327E-08  0.8000E+01
     -1.141  0.5405E-07  0.8000E+01
     -1.069  0.9791E-06  0.8000E+01
     -0.998  0.1384E-04  0.8000E+01
     -0.926  0.1527E-03  0.8000E+01
     -0.854  0.1316E-02  0.8000E+01
     -0.783  0.8857E-02  0.8001E+01
     -0.711  0.4657E-01  0.8004E+01
     -0.640  0.1913E+00  0.8018E+01
     -0.568  0.6139E+00  0.8062E+01
     -0.496  0.1539E+01  0.8173E+01
     -0.425  0.3012E+01  0.8390E+01
     -0.353  0.4603E+01  0.8722E+01
     -0.281  0.5489E+01  0.9117E+01
     -0.210  0.5105E+01  0.9486E+01
     -0.138  0.3702E+01  0.9753E+01
     -0.067  0.2091E+01  0.9903E+01
      0.005  0.9199E+00  0.9970E+01
      0.077  0.3190E+00  0.9993E+01
      0.148  0.1105E+00  0.1000E+02
      0.220  0.1443E+00  0.1001E+02
      0.292  0.4805E+00  0.1005E+02
      0.363  0.1437E+01  0.1015E+02
      0.435  0.3480E+01  0.1040E+02
      0.506  0.6836E+01  0.1089E+02
      0.578  0.1094E+02  0.1168E+02
      0.650  0.1430E+02  0.1271E+02
      0.721  0.1521E+02  0.1381E+02
      0.793  0.1310E+02  0.1475E+02
      0.865  0.9068E+01  0.1541E+02
      0.936  0.5005E+01  0.1577E+02
      1.008  0.2189E+01  0.1593E+02
      1.079  0.7546E+00  0.1598E+02
      1.151  0.2042E+00  0.1600E+02
      1.223  0.4323E-01  0.1600E+02
      1.294  0.7149E-02  0.1600E+02
      1.366  0.9219E-03  0.1600E+02
      1.438  0.9258E-04  0.1600E+02
      1.509  0.7233E-05  0.1600E+02
      1.581  0.4394E-06  0.1600E+02
      1.652  0.2074E-07  0.1600E+02
      1.724  0.7599E-09  0.1600E+02
      1.796  0.2161E-10  0.1600E+02
      1.867  0.4773E-12  0.1600E+02
      1.939  0.7616E-14  0.1600E+02
      2.011  0.0000E+00  0.1600E+02
      2.082  0.0000E+00  0.1600E+02
      2.154  0.0000E+00  0.1600E+02
      2.226  0.0000E+00  0.1600E+02
      2.297  0.0000E+00  0.1600E+02
      2.369  0.0000E+00  0.1600E+02
      2.440  0.0000E+00  0.1600E+02
      2.512  0.0000E+00  0.1600E+02
      2.584  0.0000E+00  0.1600E+02
      2.655  0.0000E+00  0.1600E+02
      2.727  0.0000E+00  0.1600E+02
      2.73634222    -18.75086718  301     -8.15044060      1.00000000
    -18.751  0.0000E+00  0.0000E+00
    -18.679  0.0000E+00  0.0000E+00
    -18.608  0.0000E+00  0.0000E+00
    -18.536  0.0000E+00  0.0000E+00
    -18.464  0.0000E+00  0.0000E+00
    -18.393  0.0000E+00  0.0000E+00
    -18.321  0.0000E+00  0.0000E+00
    -18.249  0.0000E+00  0.0000E+00
    -18.178  0.0000E+00  0.0000E+00
    -18.106  0.0000E+00  0.0000E+00
    -18.035  0.0000E+00  0.0000E+00
    -17.963  0.0000E+00  0.0000E+00
    -17.891  0.1085E-14  0.7772E-16
    -17.820  0.5592E-13  0.4083E-14
    -17.748  0.2407E-11  0.1765E-12
    -17.677  0.8036E-10  0.5932E-11
    -17.605  0.2082E-08  0.1551E-09
    -17.533  0.4191E-07  0.3157E-08
    -17.462  0.6549E-06  0.5006E-07
    -17.390  0.7951E-05  0.6195E-06
    -17.318  0.7500E-04  0.5991E-05
    -17.247  0.5498E-03  0.4537E-04
    -17.175  0.3133E-02  0.2698E-03
    -17.104  0.1388E-01  0.1264E-02
    -17.032  0.4782E-01  0.4689E-02
    -16.960  0.1281E+00  0.1386E-01
    -16.889  0.2670E+00  0.3299E-01
    -16.817  0.4328E+00  0.6398E-01
    -16.745  0.5458E+00  0.1031E+00
    -16.674  0.5354E+00  0.1414E+00
    -16.602  0.4087E+00  0.1707E+00
    -16.531  0.2427E+00  0.1881E+00
    -16.459  0.1121E+00  0.1961E+00
    -16.387  0.4026E-01  0.1990E+00
    -16.316  0.1125E-01  0.1998E+00
    -16.244  0.2444E-02  0.2000E+00
    -16.172  0.4127E-03  0.2000E+00
    -16.101  0.5419E-04  0.2000E+00
    -16.029  0.5528E-05  0.2000E+00
    -15.958  0.4382E-06  0.2000E+00
    -15.886  0.2698E-07  0.2000E+00
    -15.814  0.1290E-08  0.2000E+00
    -15.743  0.4791E-10  0.2000E+00
    -15.671  0.1381E-11  0.2000E+00
    -15.599  0.3092E-13  0.2000E+00
    -15.528  0.6200E-15  0.2000E+00
    -15.456  0.0000E+00  0.2000E+00
    -15.385  0.0000E+00  0.2000E+00
    -15.313  0.0000E+00  0.2000E+00
    -15.241  0.0000E+00  0.2000E+00
    -15.170  0.0000E+00  0.2000E+00
    -15.098  0.0000E+00  0.2000E+00
    -15.026  0.0000E+00  0.2000E+00
    -14.955  0.0000E+00  0.2000E+00
    -14.883  0.0000E+00  0.2000E+00
    -14.812  0.0000E+00  0.2000E+00
    -14.740  0.0000E+00  0.2000E+00
    -14.668  0.0000E+00  0.2000E+00
    -14.597  0.0000E+00  0.2000E+00
    -14.525  0.0000E+00  0.2000E+00
    -14.453  0.0000E+00  0.2000E+00
    -14.382  0.0000E+00  0.2000E+00
    -14.310  0.0000E+00  0.2000E+00
    -14.239  0.0000E+00  0.2000E+00
    -14.167  0.0000E+00  0.2000E+00
    -14.095  0.0000E+00  0.2000E+00
    -14.024  0.0000E+00  0.2000E+00
    -13.952  0.0000E+00  0.2000E+00
    -13.880  0.0000E+00  0.2000E+00
    -13.809  0.0000E+00  0.2000E+00
    -13.737  0.0000E+00  0.2000E+00
    -13.666  0.0000E+00  0.2000E+00
    -13.594  0.0000E+00  0.2000E+00
    -13.522  0.0000E+00  0.2000E+00
    -13.451  0.0000E+00  0.2000E+00
    -13.379  0.0000E+00  0.2000E+00
    -13.307  0.0000E+00  0.2000E+00
    -13.236  0.0000E+00  0.2000E+00
    -13.164  0.0000E+00  0.2000E+00
    -13.093  0.0000E+00  0.2000E+00
    -13.021  0.0000E+00  0.2000E+00
    -12.949  0.0000E+00  0.2000E+00
    -12.878  0.0000E+00  0.2000E+00
    -12.806  0.0000E+00  0.2000E+00
    -12.734  0.0000E+00  0.2000E+00
    -12.663  0.0000E+00  0.2000E+00
    -12.591  0.0000E+00  0.2000E+00
    -12.520  0.0000E+00  0.2000E+00
    -12.448  0.0000E+00  0.2000E+00
    -12.376  0.0000E+00  0.2000E+00
    -12.305  0.0000E+00  0.2000E+00
    -12.233  0.0000E+00  0.2000E+00
    -12.161  0.0000E+00  0.2000E+00
    -12.090  0.0000E+00  0.2000E+00
    -12.018  0.0000E+00  0.2000E+00
    -11.947  0.0000E+00  0.2000E+00
    -11.875  0.0000E+00  0.2000E+00
    -11.803  0.0000E+00  0.2000E+00
    -11.732  0.0000E+00  0.2000E+00
    -11.660  0.0000E+00  0.2000E+00
    -11.588  0.0000E+00  0.2000E+00
    -11.517  0.0000E+00  0.2000E+00
    -11.445  0.0000E+00  0.2000E+00
    -11.374  0.0000E+00  0.2000E+00
    -11.302  0.0000E+00  0.2000E+00
    -11.230  0.0000E+00  0.2000E+00
    -11.159  0.0000E+00  0.2000E+00
    -11.087  0.0000E+00  0.2000E+00
    -11.015  0.0000E+00  0.2000E+00
    -10.944  0.0000E+00  0.2000E+00
    -10.872  0.0000E+00  0.2000E+00
    -10.801  0.0000E+00  0.2000E+00
    -10.729  0.0000E+00  0.2000E+00
    -10.657  0.0000E+00  0.2000E+00
    -10.586  0.0000E+00  0.2000E+00
    -10.514  0.3100E-15  0.2000E+00
    -10.442  0.1666E-13  0.2000E+00
    -10.371  0.7770E-12  0.2000E+00
    -10.299  0.2804E-10  0.2000E+00
    -10.228  0.7857E-09  0.2000E+00
    -10.156  0.1709E-07  0.2000E+00
    -10.084  0.2888E-06  0.2000E+00
    -10.013  0.3792E-05  0.2000E+00
     -9.941  0.3870E-04  0.2000E+00
     -9.869  0.3072E-03  0.2000E+00
     -9.798  0.1899E-02  0.2002E+00
     -9.726  0.9155E-02  0.2008E+00
     -9.655  0.3455E-01  0.2033E+00
     -9.583  0.1027E+00  0.2106E+00
     -9.511  0.2433E+00  0.2281E+00
     -9.440  0.4677E+00  0.2616E+00
     -9.368  0.7505E+00  0.3153E+00
     -9.296  0.1038E+01  0.3896E+00
     -9.225  0.1261E+01  0.4800E+00
     -9.153  0.1343E+01  0.5761E+00
     -9.082  0.1221E+01  0.6636E+00
     -9.010  0.9210E+00  0.7296E+00
     -8.938  0.5625E+00  0.7699E+00
     -8.867  0.2740E+00  0.7895E+00
     -8.795  0.1056E+00  0.7970E+00
     -8.724  0.3200E-01  0.7993E+00
     -8.652  0.7612E-02  0.7999E+00
     -8.580  0.1418E-02  0.8000E+00
     -8.509  0.2067E-03  0.8000E+00
     -8.437  0.2353E-04  0.8000E+00
     -8.365  0.2092E-05  0.8000E+00
     -8.294  0.1450E-06  0.8000E+00
     -8.222  0.7834E-08  0.8000E+00
     -8.151  0.3296E-09  0.8000E+00
     -8.079  0.1079E-10  0.8000E+00
     -8.007  0.2751E-12  0.8000E+00
     -7.936  0.5270E-14  0.8000E+00
     -7.864  0.0000E+00  0.8000E+00
     -7.792  0.0000E+00  0.8000E+00
     -7.721  0.0000E+00  0.8000E+00
     -7.649  0.0000E+00  0.8000E+00
     -7.578  0.0000E+00  0.8000E+00
     -7.506  0.0000E+00  0.8000E+00
     -7.434  0.0000E+00  0.8000E+00
     -7.363  0.0000E+00  0.8000E+00
     -7.291  0.0000E+00  0.8000E+00
     -7.219  0.0000E+00  0.8000E+00
     -7.148  0.0000E+00  0.8000E+00
     -7.076  0.0000E+00  0.8000E+00
     -7.005  0.0000E+00  0.8000E+00
     -6.933  0.0000E+00  0.8000E+00
     -6.861  0.0000E+00  0.8000E+00
     -6.790  0.0000E+00  0.8000E+00
     -6.718  0.0000E+00  0.8000E+00
     -6.646  0.0000E+00  0.8000E+00
     -6.575  0.0000E+00  0.8000E+00
     -6.503  0.0000E+00  0.8000E+00
     -6.432  0.0000E+00  0.8000E+00
     -6.360  0.0000E+00  0.8000E+00
     -6.288  0.0000E+00  0.8000E+00
     -6.217  0.0000E+00  0.8000E+00
     -6.145  0.0000E+00  0.8000E+00
     -6.073  0.0000E+00  0.8000E+00
     -6.002  0.0000E+00  0.8000E+00
     -5.930  0.0000E+00  0.8000E+00
     -5.859  0.0000E+00  0.8000E+00
     -5.787  0.0000E+00  0.8000E+00
     -5.715  0.0000E+00  0.8000E+00
     -5.644  0.0000E+00  0.8000E+00
     -5.572  0.0000E+00  0.8000E+00
     -5.500  0.0000E+00  0.8000E+00
     -5.429  0.0000E+00  0.8000E+00
     -5.357  0.0000E+00  0.8000E+00
     -5.286  0.0000E+00  0.8000E+00
     -5.214  0.0000E+00  0.8000E+00
     -5.142  0.0000E+00  0.8000E+00
     -5.071  0.0000E+00  0.8000E+00
     -4.999  0.0000E+00  0.8000E+00
     -4.927  0.0000E+00  0.8000E+00
     -4.856  0.0000E+00  0.8000E+00
     -4.784  0.0000E+00  0.8000E+00
     -4.713  0.0000E+00  0.8000E+00
     -4.641  0.0000E+00  0.8000E+00
     -4.569  0.0000E+00  0.8000E+00
     -4.498  0.0000E+00  0.8000E+00
     -4.426  0.0000E+00  0.8000E+00
     -4.354  0.0000E+00  0.8000E+00
     -4.283  0.0000E+00  0.8000E+00
     -4.211  0.0000E+00  0.8000E+00
     -4.140  0.0000E+00  0.8000E+00
     -4.068  0.0000E+00  0.8000E+00
     -3.996  0.0000E+00  0.8000E+00
     -3.925  0.0000E+00  0.8000E+00
     -3.853  0.0000E+00  0.8000E+00
     -3.781  0.0000E+00  0.8000E+00
     -3.710  0.0000E+00  0.8000E+00
     -3.638  0.0000E+00  0.8000E+00
     -3.567  0.0000E+00  0.8000E+00
     -3.495  0.0000E+00  0.8000E+00
     -3.423  0.0000E+00  0.8000E+00
     -3.352  0.0000E+00  0.8000E+00
     -3.280  0.0000E+00  0.8000E+00
     -3.208  0.0000E+00  0.8000E+00
     -3.137  0.0000E+00  0.8000E+00
     -3.065  0.0000E+00  0.8000E+00
     -2.994  0.0000E+00  0.8000E+00
     -2.922  0.0000E+00  0.8000E+00
     -2.850  0.0000E+00  0.8000E+00
     -2.779  0.0000E+00  0.8000E+00
     -2.707  0.0000E+00  0.8000E+00
     -2.635  0.0000E+00  0.8000E+00
     -2.564  0.0000E+00  0.8000E+00
     -2.492  0.0000E+00  0.8000E+00
     -2.421  0.0000E+00  0.8000E+00
     -2.349  0.0000E+00  0.8000E+00
     -2.277  0.0000E+00  0.8000E+00
     -2.206  0.0000E+00  0.8000E+00
     -2.134  0.0000E+00  0.8000E+00
     -2.062  0.0000E+00  0.8000E+00
     -1.991  0.0000E+00  0.8000E+00
     -1.919  0.0000E+00  0.8000E+00
     -1.848  0.0000E+00  0.8000E+00
     -1.776  0.0000E+00  0.8000E+00
     -1.704  0.0000E+00  0.8000E+00
     -1.633  0.0000E+00  0.8000E+00
     -1.561  0.0000E+00  0.8000E+00
     -1.489  0.4650E-15  0.8000E+00
     -1.418  0.2565E-13  0.8000E+00
     -1.346  0.1161E-11  0.8000E+00
     -1.275  0.4072E-10  0.8000E+00
     -1.203  0.1109E-08  0.8000E+00
     -1.131  0.2345E-07  0.8000E+00
     -1.060  0.3851E-06  0.8000E+00
     -0.988  0.4914E-05  0.8000E+00
     -0.916  0.4873E-04  0.8000E+00
     -0.845  0.3756E-03  0.8000E+00
     -0.773  0.2250E-02  0.8002E+00
     -0.702  0.1048E-01  0.8009E+00
     -0.630  0.3798E-01  0.8037E+00
     -0.558  0.1070E+00  0.8113E+00
     -0.487  0.2347E+00  0.8281E+00
     -0.415  0.4002E+00  0.8568E+00
     -0.343  0.5311E+00  0.8948E+00
     -0.272  0.5484E+00  0.9341E+00
     -0.200  0.4406E+00  0.9657E+00
     -0.129  0.2754E+00  0.9854E+00
     -0.057  0.1340E+00  0.9950E+00
      0.015  0.5088E-01  0.9987E+00
      0.086  0.1624E-01  0.9998E+00
      0.158  0.1019E-01  0.1001E+01
      0.230  0.2794E-01  0.1003E+01
      0.301  0.8762E-01  0.1009E+01
      0.373  0.2250E+00  0.1025E+01
      0.444  0.4708E+00  0.1059E+01
      0.516  0.8137E+00  0.1117E+01
      0.588  0.1176E+01  0.1201E+01
      0.659  0.1425E+01  0.1303E+01
      0.731  0.1439E+01  0.1406E+01
      0.802  0.1196E+01  0.1492E+01
      0.874  0.8056E+00  0.1550E+01
      0.946  0.4346E+00  0.1581E+01
      1.017  0.1859E+00  0.1594E+01
      1.089  0.6269E-01  0.1599E+01
      1.161  0.1659E-01  0.1600E+01
      1.232  0.3438E-02  0.1600E+01
      1.304  0.5569E-03  0.1600E+01
      1.375  0.7043E-04  0.1600E+01
      1.447  0.6950E-05  0.1600E+01
      1.519  0.5349E-06  0.1600E+01
      1.590  0.3208E-07  0.1600E+01
      1.662  0.1499E-08  0.1600E+01
      1.734  0.5457E-10  0.1600E+01
      1.805  0.1547E-11  0.1600E+01
      1.877  0.3395E-13  0.1600E+01
      1.948  0.6200E-15  0.1600E+01
      2.020  0.0000E+00  0.1600E+01
      2.092  0.0000E+00  0.1600E+01
      2.163  0.0000E+00  0.1600E+01
      2.235  0.0000E+00  0.1600E+01
      2.307  0.0000E+00  0.1600E+01
      2.378  0.0000E+00  0.1600E+01
      2.450  0.0000E+00  0.1600E+01
      2.521  0.0000E+00  0.1600E+01
      2.593  0.0000E+00  0.1600E+01
      2.665  0.0000E+00  0.1600E+01
      2.736  0.0000E+00  0.1600E+01
