   5   5   0   0
  0.2052898E+03  0.1017858E-08  0.1009054E-08  0.9996980E-09  0.5000000E-15
  1.000000000000000E-004
  CAR 
 unknown system                          
      2.70183533    -18.94449826  301     -8.33765387      1.00000000
    -18.944  0.0000E+00  0.0000E+00
    -18.872  0.0000E+00  0.0000E+00
    -18.800  0.0000E+00  0.0000E+00
    -18.728  0.0000E+00  0.0000E+00
    -18.656  0.0000E+00  0.0000E+00
    -18.584  0.0000E+00  0.0000E+00
    -18.512  0.0000E+00  0.0000E+00
    -18.439  0.0000E+00  0.0000E+00
    -18.367  0.0000E+00  0.0000E+00
    -18.295  0.0000E+00  0.0000E+00
    -18.223  0.0000E+00  0.0000E+00
    -18.151  0.0000E+00  0.0000E+00
    -18.079  0.1250E-13  0.8993E-15
    -18.006  0.6841E-12  0.5010E-13
    -17.934  0.2946E-10  0.2169E-11
    -17.862  0.9829E-09  0.7286E-10
    -17.790  0.2540E-07  0.1900E-08
    -17.718  0.5086E-06  0.3848E-07
    -17.646  0.7894E-05  0.6062E-06
    -17.574  0.9498E-04  0.7437E-05
    -17.501  0.8861E-03  0.7117E-04
    -17.429  0.6412E-02  0.5323E-03
    -17.357  0.3600E-01  0.3121E-02
    -17.285  0.1568E+00  0.1440E-01
    -17.213  0.5301E+00  0.5252E-01
    -17.141  0.1391E+01  0.1526E+00
    -17.068  0.2834E+01  0.3564E+00
    -16.996  0.4484E+01  0.6788E+00
    -16.924  0.5510E+01  0.1075E+01
    -16.852  0.5257E+01  0.1453E+01
    -16.780  0.3896E+01  0.1733E+01
    -16.708  0.2243E+01  0.1894E+01
    -16.636  0.1003E+01  0.1967E+01
    -16.563  0.3482E+00  0.1992E+01
    -16.491  0.9388E-01  0.1998E+01
    -16.419  0.1966E-01  0.2000E+01
    -16.347  0.3196E-02  0.2000E+01
    -16.275  0.4033E-03  0.2000E+01
    -16.203  0.3951E-04  0.2000E+01
    -16.130  0.3004E-05  0.2000E+01
    -16.058  0.1772E-06  0.2000E+01
    -15.986  0.8113E-08  0.2000E+01
    -15.914  0.2881E-09  0.2000E+01
    -15.842  0.7936E-11  0.2000E+01
    -15.770  0.1697E-12  0.2000E+01
    -15.698  0.2785E-14  0.2000E+01
    -15.625  0.0000E+00  0.2000E+01
    -15.553  0.0000E+00  0.2000E+01
    -15.481  0.0000E+00  0.2000E+01
    -15.409  0.0000E+00  0.2000E+01
    -15.337  0.0000E+00  0.2000E+01
    -15.265  0.0000E+00  0.2000E+01
    -15.192  0.0000E+00  0.2000E+01
    -15.120  0.0000E+00  0.2000E+01
    -15.048  0.0000E+00  0.2000E+01
    -14.976  0.0000E+00  0.2000E+01
    -14.904  0.0000E+00  0.2000E+01
    -14.832  0.0000E+00  0.2000E+01
    -14.760  0.0000E+00  0.2000E+01
    -14.687  0.0000E+00  0.2000E+01
    -14.615  0.0000E+00  0.2000E+01
    -14.543  0.0000E+00  0.2000E+01
    -14.471  0.0000E+00  0.2000E+01
    -14.399  0.0000E+00  0.2000E+01
    -14.327  0.0000E+00  0.2000E+01
    -14.254  0.0000E+00  0.2000E+01
    -14.182  0.0000E+00  0.2000E+01
    -14.110  0.0000E+00  0.2000E+01
    -14.038  0.0000E+00  0.2000E+01
    -13.966  0.0000E+00  0.2000E+01
    -13.894  0.0000E+00  0.2000E+01
    -13.822  0.0000E+00  0.2000E+01
    -13.749  0.0000E+00  0.2000E+01
    -13.677  0.0000E+00  0.2000E+01
    -13.605  0.0000E+00  0.2000E+01
    -13.533  0.0000E+00  0.2000E+01
    -13.461  0.0000E+00  0.2000E+01
    -13.389  0.0000E+00  0.2000E+01
    -13.316  0.0000E+00  0.2000E+01
    -13.244  0.0000E+00  0.2000E+01
    -13.172  0.0000E+00  0.2000E+01
    -13.100  0.0000E+00  0.2000E+01
    -13.028  0.0000E+00  0.2000E+01
    -12.956  0.0000E+00  0.2000E+01
    -12.884  0.0000E+00  0.2000E+01
    -12.811  0.0000E+00  0.2000E+01
    -12.739  0.0000E+00  0.2000E+01
    -12.667  0.0000E+00  0.2000E+01
    -12.595  0.0000E+00  0.2000E+01
    -12.523  0.0000E+00  0.2000E+01
    -12.451  0.0000E+00  0.2000E+01
    -12.378  0.0000E+00  0.2000E+01
    -12.306  0.0000E+00  0.2000E+01
    -12.234  0.0000E+00  0.2000E+01
    -12.162  0.0000E+00  0.2000E+01
    -12.090  0.0000E+00  0.2000E+01
    -12.018  0.0000E+00  0.2000E+01
    -11.946  0.0000E+00  0.2000E+01
    -11.873  0.0000E+00  0.2000E+01
    -11.801  0.0000E+00  0.2000E+01
    -11.729  0.0000E+00  0.2000E+01
    -11.657  0.0000E+00  0.2000E+01
    -11.585  0.0000E+00  0.2000E+01
    -11.513  0.0000E+00  0.2000E+01
    -11.440  0.0000E+00  0.2000E+01
    -11.368  0.0000E+00  0.2000E+01
    -11.296  0.0000E+00  0.2000E+01
    -11.224  0.0000E+00  0.2000E+01
    -11.152  0.0000E+00  0.2000E+01
    -11.080  0.0000E+00  0.2000E+01
    -11.008  0.0000E+00  0.2000E+01
    -10.935  0.0000E+00  0.2000E+01
    -10.863  0.0000E+00  0.2000E+01
    -10.791  0.0000E+00  0.2000E+01
    -10.719  0.0000E+00  0.2000E+01
    -10.647  0.0000E+00  0.2000E+01
    -10.575  0.1548E-15  0.2000E+01
    -10.502  0.3165E-13  0.2000E+01
    -10.430  0.1645E-11  0.2000E+01
    -10.358  0.6686E-10  0.2000E+01
    -10.286  0.2115E-08  0.2000E+01
    -10.214  0.5209E-07  0.2000E+01
    -10.142  0.1000E-05  0.2000E+01
    -10.070  0.1498E-04  0.2000E+01
     -9.997  0.1753E-03  0.2000E+01
     -9.925  0.1605E-02  0.2000E+01
     -9.853  0.1152E-01  0.2001E+01
     -9.781  0.6490E-01  0.2006E+01
     -9.709  0.2878E+00  0.2026E+01
     -9.637  0.1007E+01  0.2099E+01
     -9.564  0.2783E+01  0.2299E+01
     -9.492  0.6094E+01  0.2737E+01
     -9.420  0.1059E+02  0.3498E+01
     -9.348  0.1460E+02  0.4548E+01
     -9.276  0.1599E+02  0.5698E+01
     -9.204  0.1391E+02  0.6697E+01
     -9.131  0.9590E+01  0.7387E+01
     -9.059  0.5237E+01  0.7764E+01
     -8.987  0.2260E+01  0.7926E+01
     -8.915  0.7695E+00  0.7981E+01
     -8.843  0.2062E+00  0.7996E+01
     -8.771  0.4343E-01  0.7999E+01
     -8.699  0.7172E-02  0.8000E+01
     -8.626  0.9277E-03  0.8000E+01
     -8.554  0.9385E-04  0.8000E+01
     -8.482  0.7417E-05  0.8000E+01
     -8.410  0.4575E-06  0.8000E+01
     -8.338  0.2201E-07  0.8000E+01
     -8.266  0.8248E-09  0.8000E+01
     -8.193  0.2408E-10  0.8000E+01
     -8.121  0.5458E-12  0.8000E+01
     -8.049  0.9428E-14  0.8000E+01
     -7.977  0.0000E+00  0.8000E+01
     -7.905  0.0000E+00  0.8000E+01
     -7.833  0.0000E+00  0.8000E+01
     -7.761  0.0000E+00  0.8000E+01
     -7.688  0.0000E+00  0.8000E+01
     -7.616  0.0000E+00  0.8000E+01
     -7.544  0.0000E+00  0.8000E+01
     -7.472  0.0000E+00  0.8000E+01
     -7.400  0.0000E+00  0.8000E+01
     -7.328  0.0000E+00  0.8000E+01
     -7.255  0.0000E+00  0.8000E+01
     -7.183  0.0000E+00  0.8000E+01
     -7.111  0.0000E+00  0.8000E+01
     -7.039  0.0000E+00  0.8000E+01
     -6.967  0.0000E+00  0.8000E+01
     -6.895  0.0000E+00  0.8000E+01
     -6.823  0.0000E+00  0.8000E+01
     -6.750  0.0000E+00  0.8000E+01
     -6.678  0.0000E+00  0.8000E+01
     -6.606  0.0000E+00  0.8000E+01
     -6.534  0.0000E+00  0.8000E+01
     -6.462  0.0000E+00  0.8000E+01
     -6.390  0.0000E+00  0.8000E+01
     -6.317  0.0000E+00  0.8000E+01
     -6.245  0.0000E+00  0.8000E+01
     -6.173  0.0000E+00  0.8000E+01
     -6.101  0.0000E+00  0.8000E+01
     -6.029  0.0000E+00  0.8000E+01
     -5.957  0.0000E+00  0.8000E+01
     -5.885  0.0000E+00  0.8000E+01
     -5.812  0.0000E+00  0.8000E+01
     -5.740  0.0000E+00  0.8000E+01
     -5.668  0.0000E+00  0.8000E+01
     -5.596  0.0000E+00  0.8000E+01
     -5.524  0.0000E+00  0.8000E+01
     -5.452  0.0000E+00  0.8000E+01
     -5.379  0.0000E+00  0.8000E+01
     -5.307  0.0000E+00  0.8000E+01
     -5.235  0.0000E+00  0.8000E+01
     -5.163  0.0000E+00  0.8000E+01
     -5.091  0.0000E+00  0.8000E+01
     -5.019  0.0000E+00  0.8000E+01
     -4.947  0.0000E+00  0.8000E+01
     -4.874  0.0000E+00  0.8000E+01
     -4.802  0.0000E+00  0.8000E+01
     -4.730  0.0000E+00  0.8000E+01
     -4.658  0.0000E+00  0.8000E+01
     -4.586  0.0000E+00  0.8000E+01
     -4.514  0.0000E+00  0.8000E+01
     -4.441  0.0000E+00  0.8000E+01
     -4.369  0.0000E+00  0.8000E+01
     -4.297  0.0000E+00  0.8000E+01
     -4.225  0.0000E+00  0.8000E+01
     -4.153  0.0000E+00  0.8000E+01
     -4.081  0.0000E+00  0.8000E+01
     -4.009  0.0000E+00  0.8000E+01
     -3.936  0.0000E+00  0.8000E+01
     -3.864  0.0000E+00  0.8000E+01
     -3.792  0.0000E+00  0.8000E+01
     -3.720  0.0000E+00  0.8000E+01
     -3.648  0.0000E+00  0.8000E+01
     -3.576  0.0000E+00  0.8000E+01
     -3.503  0.0000E+00  0.8000E+01
     -3.431  0.0000E+00  0.8000E+01
     -3.359  0.0000E+00  0.8000E+01
     -3.287  0.0000E+00  0.8000E+01
     -3.215  0.0000E+00  0.8000E+01
     -3.143  0.0000E+00  0.8000E+01
     -3.071  0.0000E+00  0.8000E+01
     -2.998  0.0000E+00  0.8000E+01
     -2.926  0.0000E+00  0.8000E+01
     -2.854  0.0000E+00  0.8000E+01
     -2.782  0.0000E+00  0.8000E+01
     -2.710  0.0000E+00  0.8000E+01
     -2.638  0.0000E+00  0.8000E+01
     -2.565  0.0000E+00  0.8000E+01
     -2.493  0.0000E+00  0.8000E+01
     -2.421  0.0000E+00  0.8000E+01
     -2.349  0.0000E+00  0.8000E+01
     -2.277  0.0000E+00  0.8000E+01
     -2.205  0.0000E+00  0.8000E+01
     -2.133  0.0000E+00  0.8000E+01
     -2.060  0.0000E+00  0.8000E+01
     -1.988  0.0000E+00  0.8000E+01
     -1.916  0.0000E+00  0.8000E+01
     -1.844  0.0000E+00  0.8000E+01
     -1.772  0.0000E+00  0.8000E+01
     -1.700  0.0000E+00  0.8000E+01
     -1.627  0.0000E+00  0.8000E+01
     -1.555  0.0000E+00  0.8000E+01
     -1.483  0.6146E-14  0.8000E+01
     -1.411  0.3463E-12  0.8000E+01
     -1.339  0.1527E-10  0.8000E+01
     -1.267  0.5230E-09  0.8000E+01
     -1.195  0.1392E-07  0.8000E+01
     -1.122  0.2880E-06  0.8000E+01
     -1.050  0.4631E-05  0.8000E+01
     -0.978  0.5790E-04  0.8000E+01
     -0.906  0.5629E-03  0.8000E+01
     -0.834  0.4257E-02  0.8000E+01
     -0.762  0.2504E-01  0.8002E+01
     -0.689  0.1146E+00  0.8010E+01
     -0.617  0.4081E+00  0.8040E+01
     -0.545  0.1131E+01  0.8121E+01
     -0.473  0.2438E+01  0.8296E+01
     -0.401  0.4091E+01  0.8590E+01
     -0.329  0.5342E+01  0.8975E+01
     -0.256  0.5428E+01  0.9365E+01
     -0.184  0.4291E+01  0.9673E+01
     -0.112  0.2638E+01  0.9863E+01
     -0.040  0.1262E+01  0.9954E+01
      0.032  0.4731E+00  0.9988E+01
      0.104  0.1595E+00  0.9999E+01
      0.176  0.1463E+00  0.1001E+02
      0.249  0.4502E+00  0.1004E+02
      0.321  0.1363E+01  0.1014E+02
      0.393  0.3349E+01  0.1038E+02
      0.465  0.6662E+01  0.1086E+02
      0.537  0.1079E+02  0.1164E+02
      0.609  0.1424E+02  0.1266E+02
      0.682  0.1530E+02  0.1376E+02
      0.754  0.1331E+02  0.1472E+02
      0.826  0.9302E+01  0.1539E+02
      0.898  0.5185E+01  0.1576E+02
      0.970  0.2290E+01  0.1592E+02
      1.042  0.7968E+00  0.1598E+02
      1.114  0.2176E+00  0.1600E+02
      1.187  0.4649E-01  0.1600E+02
      1.259  0.7755E-02  0.1600E+02
      1.331  0.1008E-02  0.1600E+02
      1.403  0.1021E-03  0.1600E+02
      1.475  0.8044E-05  0.1600E+02
      1.547  0.4926E-06  0.1600E+02
      1.620  0.2344E-07  0.1600E+02
      1.692  0.8664E-09  0.1600E+02
      1.764  0.2486E-10  0.1600E+02
      1.836  0.5548E-12  0.1600E+02
      1.908  0.8413E-14  0.1600E+02
      1.980  0.0000E+00  0.1600E+02
      2.052  0.0000E+00  0.1600E+02
      2.125  0.0000E+00  0.1600E+02
      2.197  0.0000E+00  0.1600E+02
      2.269  0.0000E+00  0.1600E+02
      2.341  0.0000E+00  0.1600E+02
      2.413  0.0000E+00  0.1600E+02
      2.485  0.0000E+00  0.1600E+02
      2.558  0.0000E+00  0.1600E+02
      2.630  0.0000E+00  0.1600E+02
      2.702  0.0000E+00  0.1600E+02
      2.70636065    -18.95059151  301     -8.33854396      1.00000000
    -18.951  0.0000E+00  0.0000E+00
    -18.878  0.0000E+00  0.0000E+00
    -18.806  0.0000E+00  0.0000E+00
    -18.734  0.0000E+00  0.0000E+00
    -18.662  0.0000E+00  0.0000E+00
    -18.590  0.0000E+00  0.0000E+00
    -18.517  0.0000E+00  0.0000E+00
    -18.445  0.0000E+00  0.0000E+00
    -18.373  0.0000E+00  0.0000E+00
    -18.301  0.0000E+00  0.0000E+00
    -18.229  0.0000E+00  0.0000E+00
    -18.157  0.0000E+00  0.0000E+00
    -18.084  0.1538E-14  0.1110E-15
    -18.012  0.8270E-13  0.6081E-14
    -17.940  0.3569E-11  0.2637E-12
    -17.868  0.1190E-09  0.8853E-11
    -17.796  0.3067E-08  0.2302E-09
    -17.723  0.6114E-07  0.4644E-08
    -17.651  0.9429E-06  0.7271E-07
    -17.579  0.1125E-04  0.8850E-06
    -17.507  0.1039E-03  0.8387E-05
    -17.435  0.7430E-03  0.6203E-04
    -17.362  0.4113E-02  0.3590E-03
    -17.290  0.1763E-01  0.1632E-02
    -17.218  0.5856E-01  0.5860E-02
    -17.146  0.1507E+00  0.1674E-01
    -17.074  0.3003E+00  0.3841E-01
    -17.001  0.4638E+00  0.7190E-01
    -16.929  0.5551E+00  0.1120E+00
    -16.857  0.5149E+00  0.1491E+00
    -16.785  0.3701E+00  0.1759E+00
    -16.713  0.2061E+00  0.1907E+00
    -16.641  0.8896E-01  0.1972E+00
    -16.568  0.2975E-01  0.1993E+00
    -16.496  0.7704E-02  0.1999E+00
    -16.424  0.1545E-02  0.2000E+00
    -16.352  0.2401E-03  0.2000E+00
    -16.280  0.2887E-04  0.2000E+00
    -16.207  0.2687E-05  0.2000E+00
    -16.135  0.1935E-06  0.2000E+00
    -16.063  0.1079E-07  0.2000E+00
    -15.991  0.4649E-09  0.2000E+00
    -15.919  0.1550E-10  0.2000E+00
    -15.846  0.3996E-12  0.2000E+00
    -15.774  0.7997E-14  0.2000E+00
    -15.702  0.0000E+00  0.2000E+00
    -15.630  0.0000E+00  0.2000E+00
    -15.558  0.0000E+00  0.2000E+00
    -15.485  0.0000E+00  0.2000E+00
    -15.413  0.0000E+00  0.2000E+00
    -15.341  0.0000E+00  0.2000E+00
    -15.269  0.0000E+00  0.2000E+00
    -15.197  0.0000E+00  0.2000E+00
    -15.125  0.0000E+00  0.2000E+00
    -15.052  0.0000E+00  0.2000E+00
    -14.980  0.0000E+00  0.2000E+00
    -14.908  0.0000E+00  0.2000E+00
    -14.836  0.0000E+00  0.2000E+00
    -14.764  0.0000E+00  0.2000E+00
    -14.691  0.0000E+00  0.2000E+00
    -14.619  0.0000E+00  0.2000E+00
    -14.547  0.0000E+00  0.2000E+00
    -14.475  0.0000E+00  0.2000E+00
    -14.403  0.0000E+00  0.2000E+00
    -14.330  0.0000E+00  0.2000E+00
    -14.258  0.0000E+00  0.2000E+00
    -14.186  0.0000E+00  0.2000E+00
    -14.114  0.0000E+00  0.2000E+00
    -14.042  0.0000E+00  0.2000E+00
    -13.969  0.0000E+00  0.2000E+00
    -13.897  0.0000E+00  0.2000E+00
    -13.825  0.0000E+00  0.2000E+00
    -13.753  0.0000E+00  0.2000E+00
    -13.681  0.0000E+00  0.2000E+00
    -13.609  0.0000E+00  0.2000E+00
    -13.536  0.0000E+00  0.2000E+00
    -13.464  0.0000E+00  0.2000E+00
    -13.392  0.0000E+00  0.2000E+00
    -13.320  0.0000E+00  0.2000E+00
    -13.248  0.0000E+00  0.2000E+00
    -13.175  0.0000E+00  0.2000E+00
    -13.103  0.0000E+00  0.2000E+00
    -13.031  0.0000E+00  0.2000E+00
    -12.959  0.0000E+00  0.2000E+00
    -12.887  0.0000E+00  0.2000E+00
    -12.814  0.0000E+00  0.2000E+00
    -12.742  0.0000E+00  0.2000E+00
    -12.670  0.0000E+00  0.2000E+00
    -12.598  0.0000E+00  0.2000E+00
    -12.526  0.0000E+00  0.2000E+00
    -12.454  0.0000E+00  0.2000E+00
    -12.381  0.0000E+00  0.2000E+00
    -12.309  0.0000E+00  0.2000E+00
    -12.237  0.0000E+00  0.2000E+00
    -12.165  0.0000E+00  0.2000E+00
    -12.093  0.0000E+00  0.2000E+00
    -12.020  0.0000E+00  0.2000E+00
    -11.948  0.0000E+00  0.2000E+00
    -11.876  0.0000E+00  0.2000E+00
    -11.804  0.0000E+00  0.2000E+00
    -11.732  0.0000E+00  0.2000E+00
    -11.659  0.0000E+00  0.2000E+00
    -11.587  0.0000E+00  0.2000E+00
    -11.515  0.0000E+00  0.2000E+00
    -11.443  0.0000E+00  0.2000E+00
    -11.371  0.0000E+00  0.2000E+00
    -11.298  0.0000E+00  0.2000E+00
    -11.226  0.0000E+00  0.2000E+00
    -11.154  0.0000E+00  0.2000E+00
    -11.082  0.0000E+00  0.2000E+00
    -11.010  0.0000E+00  0.2000E+00
    -10.938  0.0000E+00  0.2000E+00
    -10.865  0.0000E+00  0.2000E+00
    -10.793  0.0000E+00  0.2000E+00
    -10.721  0.0000E+00  0.2000E+00
    -10.649  0.0000E+00  0.2000E+00
    -10.577  0.0000E+00  0.2000E+00
    -10.504  0.1846E-14  0.2000E+00
    -10.432  0.9835E-13  0.2000E+00
    -10.360  0.4262E-11  0.2000E+00
    -10.288  0.1431E-09  0.2000E+00
    -10.216  0.3727E-08  0.2000E+00
    -10.143  0.7536E-07  0.2000E+00
    -10.071  0.1184E-05  0.2000E+00
     -9.999  0.1449E-04  0.2000E+00
     -9.927  0.1381E-03  0.2000E+00
     -9.855  0.1027E-02  0.2001E+00
     -9.782  0.5974E-02  0.2005E+00
     -9.710  0.2722E-01  0.2025E+00
     -9.638  0.9737E-01  0.2095E+00
     -9.566  0.2739E+00  0.2293E+00
     -9.494  0.6072E+00  0.2731E+00
     -9.422  0.1062E+01  0.3498E+00
     -9.349  0.1469E+01  0.4559E+00
     -9.277  0.1606E+01  0.5718E+00
     -9.205  0.1388E+01  0.6720E+00
     -9.133  0.9483E+00  0.7404E+00
     -9.061  0.5114E+00  0.7773E+00
     -8.988  0.2174E+00  0.7930E+00
     -8.916  0.7269E-01  0.7983E+00
     -8.844  0.1909E-01  0.7997E+00
     -8.772  0.3928E-02  0.7999E+00
     -8.700  0.6324E-03  0.8000E+00
     -8.627  0.7951E-04  0.8000E+00
     -8.555  0.7795E-05  0.8000E+00
     -8.483  0.5950E-06  0.8000E+00
     -8.411  0.3532E-07  0.8000E+00
     -8.339  0.1629E-08  0.8000E+00
     -8.266  0.5832E-10  0.8000E+00
     -8.194  0.1619E-11  0.8000E+00
     -8.122  0.3491E-13  0.8000E+00
     -8.050  0.6152E-15  0.8000E+00
     -7.978  0.0000E+00  0.8000E+00
     -7.906  0.0000E+00  0.8000E+00
     -7.833  0.0000E+00  0.8000E+00
     -7.761  0.0000E+00  0.8000E+00
     -7.689  0.0000E+00  0.8000E+00
     -7.617  0.0000E+00  0.8000E+00
     -7.545  0.0000E+00  0.8000E+00
     -7.472  0.0000E+00  0.8000E+00
     -7.400  0.0000E+00  0.8000E+00
     -7.328  0.0000E+00  0.8000E+00
     -7.256  0.0000E+00  0.8000E+00
     -7.184  0.0000E+00  0.8000E+00
     -7.111  0.0000E+00  0.8000E+00
     -7.039  0.0000E+00  0.8000E+00
     -6.967  0.0000E+00  0.8000E+00
     -6.895  0.0000E+00  0.8000E+00
     -6.823  0.0000E+00  0.8000E+00
     -6.751  0.0000E+00  0.8000E+00
     -6.678  0.0000E+00  0.8000E+00
     -6.606  0.0000E+00  0.8000E+00
     -6.534  0.0000E+00  0.8000E+00
     -6.462  0.0000E+00  0.8000E+00
     -6.390  0.0000E+00  0.8000E+00
     -6.317  0.0000E+00  0.8000E+00
     -6.245  0.0000E+00  0.8000E+00
     -6.173  0.0000E+00  0.8000E+00
     -6.101  0.0000E+00  0.8000E+00
     -6.029  0.0000E+00  0.8000E+00
     -5.956  0.0000E+00  0.8000E+00
     -5.884  0.0000E+00  0.8000E+00
     -5.812  0.0000E+00  0.8000E+00
     -5.740  0.0000E+00  0.8000E+00
     -5.668  0.0000E+00  0.8000E+00
     -5.595  0.0000E+00  0.8000E+00
     -5.523  0.0000E+00  0.8000E+00
     -5.451  0.0000E+00  0.8000E+00
     -5.379  0.0000E+00  0.8000E+00
     -5.307  0.0000E+00  0.8000E+00
     -5.235  0.0000E+00  0.8000E+00
     -5.162  0.0000E+00  0.8000E+00
     -5.090  0.0000E+00  0.8000E+00
     -5.018  0.0000E+00  0.8000E+00
     -4.946  0.0000E+00  0.8000E+00
     -4.874  0.0000E+00  0.8000E+00
     -4.801  0.0000E+00  0.8000E+00
     -4.729  0.0000E+00  0.8000E+00
     -4.657  0.0000E+00  0.8000E+00
     -4.585  0.0000E+00  0.8000E+00
     -4.513  0.0000E+00  0.8000E+00
     -4.440  0.0000E+00  0.8000E+00
     -4.368  0.0000E+00  0.8000E+00
     -4.296  0.0000E+00  0.8000E+00
     -4.224  0.0000E+00  0.8000E+00
     -4.152  0.0000E+00  0.8000E+00
     -4.079  0.0000E+00  0.8000E+00
     -4.007  0.0000E+00  0.8000E+00
     -3.935  0.0000E+00  0.8000E+00
     -3.863  0.0000E+00  0.8000E+00
     -3.791  0.0000E+00  0.8000E+00
     -3.719  0.0000E+00  0.8000E+00
     -3.646  0.0000E+00  0.8000E+00
     -3.574  0.0000E+00  0.8000E+00
     -3.502  0.0000E+00  0.8000E+00
     -3.430  0.0000E+00  0.8000E+00
     -3.358  0.0000E+00  0.8000E+00
     -3.285  0.0000E+00  0.8000E+00
     -3.213  0.0000E+00  0.8000E+00
     -3.141  0.0000E+00  0.8000E+00
     -3.069  0.0000E+00  0.8000E+00
     -2.997  0.0000E+00  0.8000E+00
     -2.924  0.0000E+00  0.8000E+00
     -2.852  0.0000E+00  0.8000E+00
     -2.780  0.0000E+00  0.8000E+00
     -2.708  0.0000E+00  0.8000E+00
     -2.636  0.0000E+00  0.8000E+00
     -2.563  0.0000E+00  0.8000E+00
     -2.491  0.0000E+00  0.8000E+00
     -2.419  0.0000E+00  0.8000E+00
     -2.347  0.0000E+00  0.8000E+00
     -2.275  0.0000E+00  0.8000E+00
     -2.203  0.0000E+00  0.8000E+00
     -2.130  0.0000E+00  0.8000E+00
     -2.058  0.0000E+00  0.8000E+00
     -1.986  0.0000E+00  0.8000E+00
     -1.914  0.0000E+00  0.8000E+00
     -1.842  0.0000E+00  0.8000E+00
     -1.769  0.0000E+00  0.8000E+00
     -1.697  0.0000E+00  0.8000E+00
     -1.625  0.0000E+00  0.8000E+00
     -1.553  0.0000E+00  0.8000E+00
     -1.481  0.1538E-15  0.8000E+00
     -1.408  0.7036E-14  0.8000E+00
     -1.336  0.3581E-12  0.8000E+00
     -1.264  0.1399E-10  0.8000E+00
     -1.192  0.4227E-09  0.8000E+00
     -1.120  0.9875E-08  0.8000E+00
     -1.048  0.1785E-06  0.8000E+00
     -0.975  0.2495E-05  0.8000E+00
     -0.903  0.2700E-04  0.8000E+00
     -0.831  0.2262E-03  0.8000E+00
     -0.759  0.1467E-02  0.8001E+00
     -0.687  0.7367E-02  0.8007E+00
     -0.614  0.2866E-01  0.8027E+00
     -0.542  0.8636E-01  0.8090E+00
     -0.470  0.2017E+00  0.8235E+00
     -0.398  0.3649E+00  0.8499E+00
     -0.326  0.5116E+00  0.8868E+00
     -0.253  0.5559E+00  0.9269E+00
     -0.181  0.4681E+00  0.9607E+00
     -0.109  0.3055E+00  0.9828E+00
     -0.037  0.1546E+00  0.9939E+00
      0.035  0.6090E-01  0.9983E+00
      0.108  0.2054E-01  0.9998E+00
      0.180  0.1494E-01  0.1001E+01
      0.252  0.4210E-01  0.1004E+01
      0.324  0.1278E+00  0.1013E+01
      0.396  0.3162E+00  0.1036E+01
      0.468  0.6338E+00  0.1082E+01
      0.541  0.1036E+01  0.1157E+01
      0.613  0.1387E+01  0.1257E+01
      0.685  0.1518E+01  0.1366E+01
      0.757  0.1350E+01  0.1464E+01
      0.829  0.9665E+00  0.1533E+01
      0.902  0.5521E+00  0.1573E+01
      0.974  0.2497E+00  0.1591E+01
      1.046  0.8883E-01  0.1598E+01
      1.118  0.2475E-01  0.1600E+01
      1.190  0.5384E-02  0.1600E+01
      1.263  0.9125E-03  0.1600E+01
      1.335  0.1203E-03  0.1600E+01
      1.407  0.1232E-04  0.1600E+01
      1.479  0.9800E-06  0.1600E+01
      1.551  0.6047E-07  0.1600E+01
      1.624  0.2894E-08  0.1600E+01
      1.696  0.1073E-09  0.1600E+01
      1.768  0.3085E-11  0.1600E+01
      1.840  0.6875E-13  0.1600E+01
      1.912  0.9996E-15  0.1600E+01
      1.984  0.0000E+00  0.1600E+01
      2.057  0.0000E+00  0.1600E+01
      2.129  0.0000E+00  0.1600E+01
      2.201  0.0000E+00  0.1600E+01
      2.273  0.0000E+00  0.1600E+01
      2.345  0.0000E+00  0.1600E+01
      2.418  0.0000E+00  0.1600E+01
      2.490  0.0000E+00  0.1600E+01
      2.562  0.0000E+00  0.1600E+01
      2.634  0.0000E+00  0.1600E+01
      2.706  0.0000E+00  0.1600E+01
