    5    5   10    1
  0.2052898E+03  0.1017858E-08  0.1009054E-08  0.9996980E-09  0.5000000E-15
  1.000000000000000E-004
  CAR 
 unknown system                          
      8      4      8
 
  0.2500000E+00  0.2500000E+00  0.2500000E+00  0.2500000E+00
    1      -16.950539   1.000000
    2       -9.372679   1.000000
    3       -9.320180   1.000000
    4       -9.273063   1.000000
    5       -0.305967   0.000000
    6        0.563785   0.000000
    7        0.678351   0.000000
    8        0.706361   0.000000
 
 -0.2500000E+00  0.2500000E+00  0.2500000E+00  0.2500000E+00
    1      -16.950589   1.000000
    2       -9.372838   1.000000
    3       -9.320193   1.000000
    4       -9.273118   1.000000
    5       -0.299641   0.000000
    6        0.542118   0.000000
    7        0.664343   0.000000
    8        0.694329   0.000000
 
  0.2500000E+00 -0.2500000E+00  0.2500000E+00  0.2500000E+00
    1      -16.950587   1.000000
    2       -9.372788   1.000000
    3       -9.320280   1.000000
    4       -9.273078   1.000000
    5       -0.302185   0.000000
    6        0.548768   0.000000
    7        0.671480   0.000000
    8        0.699239   0.000000
 
 -0.2500000E+00 -0.2500000E+00  0.2500000E+00  0.2500000E+00
    1      -16.950592   1.000000
    2       -9.372869   1.000000
    3       -9.320336   1.000000
    4       -9.273152   1.000000
    5       -0.300527   0.000000
    6        0.550065   0.000000
    7        0.666228   0.000000
    8        0.695004   0.000000
