 running on   16 total cores
 distrk:  each k-point on   16 cores,    1 groups
 distr:  one band on    4 cores,    4 groups
 using from now: INCAR     
 vasp.5.4.4.18Apr17-6-g9f103f2a35 (build Nov 25 2021 15:25:00) complex          
  
 POSCAR found type information on POSCAR  H  C 
 POSCAR found :  2 types and       5 ions
 scaLAPACK will be used
 LDA part: xc-table for Pade appr. of Perdew
 POSCAR found type information on POSCAR  H  C 
 POSCAR found :  2 types and       5 ions
 generate k-points for:    2    2    2
 POSCAR, INCAR and KPOINTS ok, starting setup
 FFT: planning ...
 WAVECAR not read
 prediction of wavefunctions initialized - no I/O
 entering main loop
       N       E                     dE             d eps       ncg     rms          rms(c)
DAV:   1     0.160744595244E+02    0.16074E+02   -0.19198E+03    96   0.408E+02
DAV:   2    -0.222034646095E+02   -0.38278E+02   -0.38278E+02    64   0.113E+02
DAV:   3    -0.272049193454E+02   -0.50015E+01   -0.50015E+01    64   0.475E+01
DAV:   4    -0.274205735967E+02   -0.21565E+00   -0.21565E+00   128   0.109E+01
DAV:   5    -0.274206611792E+02   -0.87582E-04   -0.87583E-04    96   0.244E-01    0.855E+00
RMM:   6    -0.246340428613E+02    0.27866E+01   -0.51345E+00    64   0.138E+01    0.422E+00
RMM:   7    -0.241609874843E+02    0.47306E+00   -0.11265E+00    64   0.612E+00    0.225E+00
RMM:   8    -0.240162583945E+02    0.14473E+00   -0.16204E-01    64   0.286E+00    0.228E-01
RMM:   9    -0.240106918379E+02    0.55666E-02   -0.10805E-02    64   0.688E-01    0.193E-01
RMM:  10    -0.240043267015E+02    0.63651E-02   -0.24596E-02    64   0.852E-01    0.274E-01
RMM:  11    -0.240051359194E+02   -0.80922E-03   -0.85581E-03    64   0.572E-01    0.884E-02
RMM:  12    -0.240145879914E+02   -0.94521E-02   -0.32952E-03    64   0.352E-01    0.123E-01
RMM:  13    -0.240151010358E+02   -0.51304E-03   -0.96939E-04    64   0.171E-01    0.489E-02
RMM:  14    -0.240179806979E+02   -0.28797E-02   -0.15331E-03    64   0.239E-01    0.371E-02
RMM:  15    -0.240181829268E+02   -0.20223E-03   -0.45957E-05    64   0.450E-02    0.197E-02
RMM:  16    -0.240184007737E+02   -0.21785E-03   -0.20378E-04    64   0.841E-02    0.138E-02
RMM:  17    -0.240184214469E+02   -0.20673E-04   -0.34758E-05    64   0.341E-02    0.187E-03
RMM:  18    -0.240184359835E+02   -0.14537E-04   -0.15081E-06    48   0.109E-02    0.891E-04
RMM:  19    -0.240184386386E+02   -0.26550E-05   -0.36840E-07    48   0.525E-03    0.893E-04
RMM:  20    -0.240184400474E+02   -0.14088E-05   -0.11937E-07    48   0.234E-03    0.228E-04
RMM:  21    -0.240184403622E+02   -0.31481E-06    0.00000E+00    32   0.995E-04
    1 T=     0. E= -.24018246E+02 F= -.24018440E+02 E0= -.24018440E+02  EK= 0.19452E-03 SP= 0.00E+00 SK= 0.00E+00
 bond charge predicted
       N       E                     dE             d eps       ncg     rms          rms(c)
DAV:   1    -0.240199405889E+02   -0.15005E-02   -0.16985E-03    72   0.380E-01    0.211E-02
RMM:   2    -0.240199315306E+02    0.90583E-05   -0.38923E-05    64   0.503E-02    0.103E-02
RMM:   3    -0.240199310255E+02    0.50512E-06   -0.19764E-05    64   0.275E-02    0.369E-03
RMM:   4    -0.240199307955E+02    0.23004E-06   -0.41971E-07    48   0.566E-03
    2 T=     3. E= -.24018274E+02 F= -.24019931E+02 E0= -.24019931E+02  EK= 0.16563E-02 SP= 0.00E+00 SK= 0.00E+00
 bond charge predicted
 prediction of wavefunctions
       N       E                     dE             d eps       ncg     rms          rms(c)
DAV:   1    -0.240224778518E+02   -0.25468E-02   -0.13753E-03    88   0.355E-01    0.764E-03
RMM:   2    -0.240224800246E+02   -0.21728E-05   -0.31824E-05    64   0.526E-02    0.332E-03
RMM:   3    -0.240224801962E+02   -0.17160E-06   -0.15762E-06    48   0.113E-02    0.224E-03
RMM:   4    -0.240224804938E+02   -0.29760E-06   -0.67394E-07    48   0.759E-03
    3 T=     8. E= -.24018322E+02 F= -.24022480E+02 E0= -.24022480E+02  EK= 0.41584E-02 SP= 0.00E+00 SK= 0.00E+00
 bond charge predicted
 prediction of wavefunctions
       N       E                     dE             d eps       ncg     rms          rms(c)
DAV:   1    -0.240253584261E+02   -0.28782E-02   -0.40155E-04    72   0.154E-01    0.123E-02
RMM:   2    -0.240253541130E+02    0.43131E-05   -0.25997E-05    64   0.436E-02    0.570E-03
RMM:   3    -0.240253544171E+02   -0.30413E-06   -0.15807E-05    64   0.237E-02    0.227E-03
RMM:   4    -0.240253544760E+02   -0.58834E-07   -0.53736E-07    48   0.571E-03
    4 T=    13. E= -.24018375E+02 F= -.24025354E+02 E0= -.24025354E+02  EK= 0.69794E-02 SP= 0.00E+00 SK= 0.00E+00
 bond charge predicted
 prediction of wavefunctions
       N       E                     dE             d eps       ncg     rms          rms(c)
DAV:   1    -0.240276958936E+02   -0.23415E-02   -0.51828E-04    64   0.177E-01    0.236E-03
RMM:   2    -0.240276973744E+02   -0.14808E-05   -0.42036E-06    64   0.183E-02    0.180E-03
RMM:   3    -0.240276983256E+02   -0.95118E-06   -0.35014E-07    48   0.526E-03    0.142E-03
RMM:   4    -0.240276998882E+02   -0.15627E-05   -0.98609E-08    48   0.213E-03    0.284E-04
RMM:   5    -0.240277006061E+02   -0.71791E-06    0.00000E+00    32   0.136E-03
    5 T=    18. E= -.24018420E+02 F= -.24027701E+02 E0= -.24027701E+02  EK= 0.92805E-02 SP= 0.00E+00 SK= 0.00E+00
 bond charge predicted
 prediction of wavefunctions
       N       E                     dE             d eps       ncg     rms          rms(c)
DAV:   1    -0.240288078984E+02   -0.11080E-02   -0.70873E-04    64   0.203E-01    0.874E-03
RMM:   2    -0.240288071748E+02    0.72366E-06   -0.15748E-05    64   0.314E-02    0.554E-03
RMM:   3    -0.240288080782E+02   -0.90344E-06   -0.15214E-05    64   0.228E-02    0.291E-03
RMM:   4    -0.240288078394E+02    0.23881E-06   -0.74798E-07    48   0.625E-03
    6 T=    20. E= -.24018449E+02 F= -.24028808E+02 E0= -.24028808E+02  EK= 0.10359E-01 SP= 0.00E+00 SK= 0.00E+00
 bond charge predicted
 prediction of wavefunctions
       N       E                     dE             d eps       ncg     rms          rms(c)
DAV:   1    -0.240283294542E+02    0.47862E-03   -0.61605E-04    64   0.202E-01    0.212E-03
RMM:   2    -0.240283310687E+02   -0.16145E-05   -0.46552E-06    60   0.194E-02    0.145E-03
RMM:   3    -0.240283321825E+02   -0.11137E-05   -0.19270E-07    48   0.426E-03    0.101E-03
RMM:   4    -0.240283338339E+02   -0.16514E-05   -0.97979E-08    48   0.262E-03    0.189E-04
RMM:   5    -0.240283342919E+02   -0.45801E-06   -0.48191E-09    36   0.127E-03
    7 T=    19. E= -.24018445E+02 F= -.24028334E+02 E0= -.24028334E+02  EK= 0.98890E-02 SP= 0.00E+00 SK= 0.00E+00
 bond charge predicted
 prediction of wavefunctions
       N       E                     dE             d eps       ncg     rms          rms(c)
DAV:   1    -0.240264195724E+02    0.19143E-02   -0.50536E-04    64   0.190E-01    0.539E-03
RMM:   2    -0.240264235792E+02   -0.40068E-05   -0.10184E-05    64   0.314E-02    0.361E-03
RMM:   3    -0.240264276081E+02   -0.40289E-05   -0.24531E-06    56   0.982E-03    0.646E-04
RMM:   4    -0.240264301734E+02   -0.25652E-05   -0.24535E-07    48   0.423E-03    0.387E-04
RMM:   5    -0.240264334899E+02   -0.33165E-05   -0.50940E-08    40   0.206E-03    0.215E-04
RMM:   6    -0.240264371069E+02   -0.36170E-05   -0.14753E-07    48   0.234E-03    0.153E-04
RMM:   7    -0.240264383562E+02   -0.12493E-05   -0.63240E-08    42   0.183E-03    0.261E-04
RMM:   8    -0.240264386591E+02   -0.30288E-06    0.00000E+00    32   0.109E-03
    8 T=    16. E= -.24018407E+02 F= -.24026439E+02 E0= -.24026439E+02  EK= 0.80315E-02 SP= 0.00E+00 SK= 0.00E+00
 bond charge predicted
 prediction of wavefunctions
       N       E                     dE             d eps       ncg     rms          rms(c)
DAV:   1    -0.240237582619E+02    0.26801E-02   -0.36536E-04    64   0.160E-01    0.199E-03
RMM:   2    -0.240237593012E+02   -0.10394E-05   -0.42320E-06    56   0.212E-02    0.117E-03
RMM:   3    -0.240237599647E+02   -0.66348E-06   -0.31497E-07    48   0.524E-03    0.587E-04
RMM:   4    -0.240237605795E+02   -0.61476E-06   -0.11866E-07    48   0.316E-03
    9 T=    10. E= -.24018348E+02 F= -.24023761E+02 E0= -.24023761E+02  EK= 0.54124E-02 SP= 0.00E+00 SK= 0.00E+00
 bond charge predicted
 prediction of wavefunctions
       N       E                     dE             d eps       ncg     rms          rms(c)
DAV:   1    -0.240212284587E+02    0.25315E-02   -0.18950E-04    72   0.123E-01    0.108E-03
RMM:   2    -0.240212293070E+02   -0.84826E-06   -0.31090E-06    59   0.211E-02    0.647E-04
RMM:   3    -0.240212296225E+02   -0.31557E-06   -0.10203E-07    44   0.329E-03    0.561E-04
RMM:   4    -0.240212304503E+02   -0.82775E-06   -0.23888E-08    38   0.201E-03
   10 T=     6. E= -.24018292E+02 F= -.24021230E+02 E0= -.24021230E+02  EK= 0.29387E-02 SP= 0.00E+00 SK= 0.00E+00
 bond charge predicted
 prediction of wavefunctions
 wavefunctions rotated
