 vasp.5.4.4.18Apr17-6-g9f103f2a35 (build Nov 25 2021 15:25:00) complex          
  
 executed on             LinuxIFC date 2022.02.21  10:17:29
 running on   16 total cores
 distrk:  each k-point on   16 cores,    1 groups
 distr:  one band on NCORES_PER_BAND=   4 cores,    4 groups


--------------------------------------------------------------------------------------------------------


 INCAR:
 POTCAR:    PAW_PBE H 15Jun2001                   
 POTCAR:    PAW_PBE C 08Apr2002                   
 POTCAR:    PAW_PBE H 15Jun2001                   
   VRHFIN =H: ultrasoft test                                                    
   LEXCH  = PE                                                                  
   EATOM  =    12.4884 eV,    0.9179 Ry                                         
                                                                                
   TITEL  = PAW_PBE H 15Jun2001                                                 
   LULTRA =        F    use ultrasoft PP ?                                      
   IUNSCR =        0    unscreen: 0-lin 1-nonlin 2-no                           
   RPACOR =    0.000    partial core radius                                     
   POMASS =    1.000; ZVAL   =    1.000    mass and valenz                      
   RCORE  =    1.100    outmost cutoff radius                                   
   RWIGS  =    0.700; RWIGS  =    0.370    wigner-seitz radius (au A)           
   ENMAX  =  250.000; ENMIN  =  200.000 eV                                      
   RCLOC  =    0.701    cutoff for local pot                                    
   LCOR   =        T    correct aug charges                                     
   LPAW   =        T    paw PP                                                  
   EAUG   =  400.000                                                            
   RMAX   =    1.123    core radius for proj-oper                               
   RAUG   =    1.200    factor for augmentation sphere                          
   RDEP   =    1.112    radius for radial grids                                 
   RDEPT  =    0.926    core radius for aug-charge                              
                                                                                
   Atomic configuration                                                         
    2 entries                                                                   
     n  l   j            E        occ.                                          
     1  0  0.50        -6.4927   1.0000                                         
     2  1  0.50        -3.4015   0.0000                                         
   Description                                                                  
     l       E           TYP  RCUT    TYP  RCUT                                 
     0     -6.4927494     23  1.100                                             
     0      6.8029130     23  1.100                                             
     1     -4.0817478     23  1.100                                             
  local pseudopotential read in
  atomic valenz-charges read in
  non local Contribution for L=           0  read in
    real space projection operators read in
  non local Contribution for L=           0  read in
    real space projection operators read in
  non local Contribution for L=           1  read in
    real space projection operators read in
    PAW grid and wavefunctions read in
 
   number of l-projection  operators is LMAX  =           3
   number of lm-projection operators is LMMAX =           5
 
 POTCAR:    PAW_PBE C 08Apr2002                   
   VRHFIN =C: s2p2                                                              
   LEXCH  = PE                                                                  
   EATOM  =   147.1560 eV,   10.8157 Ry                                         
                                                                                
   TITEL  = PAW_PBE C 08Apr2002                                                 
   LULTRA =        F    use ultrasoft PP ?                                      
   IUNSCR =        1    unscreen: 0-lin 1-nonlin 2-no                           
   RPACOR =    1.200    partial core radius                                     
   POMASS =   12.011; ZVAL   =    4.000    mass and valenz                      
   RCORE  =    1.500    outmost cutoff radius                                   
   RWIGS  =    1.630; RWIGS  =    0.863    wigner-seitz radius (au A)           
   ENMAX  =  400.000; ENMIN  =  300.000 eV                                      
   ICORE  =        2    local potential                                         
   LCOR   =        T    correct aug charges                                     
   LPAW   =        T    paw PP                                                  
   EAUG   =  644.873                                                            
   DEXC   =    0.000                                                            
   RMAX   =    1.529    core radius for proj-oper                               
   RAUG   =    1.300    factor for augmentation sphere                          
   RDEP   =    1.501    radius for radial grids                                 
   RDEPT  =    1.300    core radius for aug-charge                              
                                                                                
   Atomic configuration                                                         
    4 entries                                                                   
     n  l   j            E        occ.                                          
     1  0  0.50      -273.3789   2.0000                                         
     2  0  0.50       -13.7508   2.0000                                         
     2  1  0.50        -5.2854   2.0000                                         
     3  2  1.50        -5.4423   0.0000                                         
   Description                                                                  
     l       E           TYP  RCUT    TYP  RCUT                                 
     0    -13.7508458     23  1.200                                             
     0     -8.2022199     23  1.200                                             
     1     -5.2854383     23  1.500                                             
     1     34.0145650     23  1.500                                             
     2     -5.4423304      7  1.500                                             
  local pseudopotential read in
  partial core-charges read in
  partial kinetic energy density read in
  atomic valenz-charges read in
  non local Contribution for L=           0  read in
    real space projection operators read in
  non local Contribution for L=           0  read in
    real space projection operators read in
  non local Contribution for L=           1  read in
    real space projection operators read in
  non local Contribution for L=           1  read in
    real space projection operators read in
    PAW grid and wavefunctions read in
 
   number of l-projection  operators is LMAX  =           4
   number of lm-projection operators is LMMAX =           8
 
  PAW_PBE H 15Jun2001                   :
 energy of atom  1       EATOM=  -12.4884
 kinetic energy error for atom=    0.0098 (will be added to EATOM!!)
  PAW_PBE C 08Apr2002                   :
 energy of atom  2       EATOM= -147.1560
 kinetic energy error for atom=    0.0288 (will be added to EATOM!!)
 
 
 POSCAR:  H  C                                   
  positions in cartesian coordinates
  No initial velocities read in
 exchange correlation table for  LEXCH =        8
   RHO(1)=    0.500       N(1)  =     2000
   RHO(2)=  100.500       N(2)  =     4000

 VTST: version 3.2, (02/03/18)

 CHAIN: initializing optimizer
 
 OPT: Using VASP Dynamics algorithm
 CHAIN: Read ICHAIN            0
 
 POSCAR:  H  C                                   
  positions in cartesian coordinates
  No initial velocities read in
 


--------------------------------------------------------------------------------------------------------


 ion  position               nearest neighbor table
   1  0.539  0.407  0.360-   5 1.10
   2  0.395  0.481  0.439-   5 1.11
   3  0.552  0.565  0.443-   5 1.11
   4  0.529  0.416  0.539-   5 1.10
   5  0.503  0.467  0.445-   4 1.10   1 1.10   3 1.11   2 1.11
 

IMPORTANT INFORMATION: All symmetrisations will be switched off!
NOSYMM: (Re-)initialisation of all symmetry stuff for point group C_1.

 
 

Automatic generation of k-mesh.
 generate k-points for:    2    2    2
Space group operators:
 irot       det(A)        alpha          n_x          n_y          n_z        tau_x        tau_y        tau_z
    1     1.000000     0.000000     1.000000     0.000000     0.000000     0.000000     0.000000     0.000000
 
 Subroutine IBZKPT returns following result:
 ===========================================
 
 Found      4 irreducible k-points:
 
 Following reciprocal coordinates:
            Coordinates               Weight
  0.250000  0.250000  0.250000      2.000000
 -0.250000  0.250000  0.250000      2.000000
  0.250000 -0.250000  0.250000      2.000000
 -0.250000 -0.250000  0.250000      2.000000
 
 Following cartesian coordinates:
            Coordinates               Weight
  0.024561  0.024491  0.024332      2.000000
 -0.024561  0.025064  0.025340      2.000000
  0.024561 -0.025064  0.024687      2.000000
 -0.024561 -0.024491  0.025696      2.000000
 


--------------------------------------------------------------------------------------------------------




 Dimension of arrays:
   k-points           NKPTS =      4   k-points in BZ     NKDIM =      4   number of bands    NBANDS=      8
   number of dos      NEDOS =    301   number of ions     NIONS =      5
   non local maximal  LDIM  =      4   non local SUM 2l+1 LMDIM =      8
   total plane-waves  NPLWV = 343000
   max r-space proj   IRMAX =      1   max aug-charges    IRDMAX=   4142
   dimension x,y,z NGX =    70 NGY =   70 NGZ =   70
   dimension x,y,z NGXF=   140 NGYF=  140 NGZF=  140
   support grid    NGXF=   140 NGYF=  140 NGZF=  140
   ions per type =               4   1
   NGX,Y,Z   is equivalent  to a cutoff of  11.43, 11.53, 11.64 a.u.
   NGXF,Y,Z  is equivalent  to a cutoff of  22.87, 23.07, 23.28 a.u.

 SYSTEM =  unknown system                          
 POSCAR =   H  C                                   

 Startparameter for this run:
   NWRITE =      2    write-flag & timer
   PREC   = a         normal or accurate (medium, high low for compatibility)
   ISTART =      0    job   : 0-new  1-cont  2-samecut
   ICHARG =      2    charge: 1-file 2-atom 10-const
   ISPIN  =      1    spin polarized calculation?
   LNONCOLLINEAR =      F non collinear calculations
   LSORBIT =      F    spin-orbit coupling
   INIWAV =      1    electr: 0-lowe 1-rand  2-diag
   LASPH  =      F    aspherical Exc in radial PAW
   METAGGA=      F    non-selfconsistent MetaGGA calc.

 Electronic Relaxation 1
   ENCUT  =  400.0 eV  29.40 Ry    5.42 a.u.  16.60 16.46 16.30*2*pi/ulx,y,z
   ENINI  =  400.0     initial cutoff
   ENAUG  =  644.9 eV  augmentation charge cutoff
   NELM   =    120;   NELMIN=  4; NELMDL= -5     # of ELM steps 
   EDIFF  = 0.1E-05   stopping-criterion for ELM
   LREAL  =      F    real-space projection
   NLSPLINE    = F    spline interpolate recip. space projectors
   LCOMPAT=      F    compatible to vasp.4.4
   GGA_COMPAT  = T    GGA compatible to vasp.4.4-vasp.4.6
   LMAXPAW     = -100 max onsite density
   LMAXMIX     =    2 max onsite mixed and CHGCAR
   VOSKOWN=      0    Vosko Wilk Nusair interpolation
   ROPT   =    0.00000   0.00000
 Ionic relaxation
   EDIFFG = 0.1E-04   stopping-criterion for IOM
   NSW    =     10    number of steps for IOM
   NBLOCK =      1;   KBLOCK =     10    inner block; outer block 
   IBRION =      0    ionic relax: 0-MD 1-quasi-New 2-CG
   NFREE  =      0    steps in history (QN), initial steepest desc. (CG)
   ISIF   =      2    stress and relaxation
   IWAVPR =     12    prediction:  0-non 1-charg 2-wave 3-comb
   ISYM   =      0    0-nonsym 1-usesym 2-fastsym
   LCORR  =      T    Harris-Foulkes like correction to forces

   POTIM  = 0.5000    time-step for ionic-motion
   TEIN   =    0.0    initial temperature
   TEBEG  =    0.0;   TEEND  =   0.0 temperature during run
   SMASS  =  -3.00    Nose mass-parameter (am)
   estimated Nose-frequenzy (Omega)   =  0.10E-29 period in steps =****** mass=  -0.237E-26a.u.
   SCALEE = 1.0000    scale energy and forces
   NPACO  =    256;   APACO  = 16.0  distance and # of slots for P.C.
   PSTRESS=    0.0 pullay stress

  Mass of Ions in am
   POMASS =   1.00 12.01
  Ionic Valenz
   ZVAL   =   1.00  4.00
  Atomic Wigner-Seitz radii
   RWIGS  =  -1.00 -1.00
  virtual crystal weights 
   VCA    =   1.00  1.00
   NELECT =       8.0000    total number of electrons
   NUPDOWN=      -1.0000    fix difference up-down

 DOS related values:
   EMIN   =  10.00;   EMAX   =-10.00  energy-range for DOS
   EFERMI =   0.00
   ISMEAR =     0;   SIGMA  =   0.20  broadening in eV -4-tet -1-fermi 0-gaus

 Electronic relaxation 2 (details)
   IALGO  =     68    algorithm
   LDIAG  =      T    sub-space diagonalisation (order eigenvalues)
   LSUBROT=      F    optimize rotation matrix (better conditioning)
   TURBO    =      0    0=normal 1=particle mesh
   IRESTART =      0    0=no restart 2=restart with 2 vectors
   NREBOOT  =      0    no. of reboots
   NMIN     =      0    reboot dimension
   EREF     =   0.00    reference energy to select bands
   IMIX   =      4    mixing-type and parameters
     AMIX     =   0.40;   BMIX     =  1.00
     AMIX_MAG =   1.60;   BMIX_MAG =  1.00
     AMIN     =   0.10
     WC   =   100.;   INIMIX=   1;  MIXPRE=   1;  MAXMIX= -45

 Intra band minimization:
   WEIMIN = 0.0010     energy-eigenvalue tresh-hold
   EBREAK =  0.31E-07  absolut break condition
   DEPER  =   0.30     relativ break condition  

   TIME   =   0.40     timestep for ELM

  volume/ion in A,a.u.               =     205.29      1385.36
  Fermi-wavevector in a.u.,A,eV,Ry     =   0.324583  0.613373  1.433429  0.105354
  Thomas-Fermi vector in A             =   1.214833
 
 Write flags
   LWAVE        =      F    write WAVECAR
   LDOWNSAMPLE  =      F    k-point downsampling of WAVECAR
   LCHARG       =      F    write CHGCAR
   LVTOT        =      F    write LOCPOT, total local potential
   LVHAR        =      F    write LOCPOT, Hartree potential only
   LELF         =      F    write electronic localiz. function (ELF)
   LORBIT       =      0    0 simple, 1 ext, 2 COOP (PROOUT), +10 PAW based schemes


 Dipole corrections
   LMONO  =      F    monopole corrections only (constant potential shift)
   LDIPOL =      F    correct potential (dipole corrections)
   IDIPOL =      0    1-x, 2-y, 3-z, 4-all directions 
   EPSILON=  1.0000000 bulk dielectric constant

 Exchange correlation treatment:
   GGA     =    --    GGA type
   LEXCH   =     8    internal setting for exchange type
   VOSKOWN=      0    Vosko Wilk Nusair interpolation
   LHFCALC =     F    Hartree Fock is set to
   LHFONE  =     F    Hartree Fock one center treatment
   AEXX    =    0.0000 exact exchange contribution

 Linear response parameters
   LEPSILON=     F    determine dielectric tensor
   LRPA    =     F    only Hartree local field effects (RPA)
   LNABLA  =     F    use nabla operator in PAW spheres
   LVEL    =     F    velocity operator in full k-point grid
   LINTERFAST=   F  fast interpolation
   KINTER  =     0    interpolate to denser k-point grid
   CSHIFT  =0.1000    complex shift for real part using Kramers Kronig
   OMEGAMAX=  -1.0    maximum frequency
   DEG_THRESHOLD= 0.2000000E-02 threshold for treating states as degnerate
   RTIME   =   -0.100 relaxation time in fs
  (WPLASMAI=    0.000 imaginary part of plasma frequency in eV, 0.658/RTIME)
   DFIELD  = 0.0000000 0.0000000 0.0000000 field for delta impulse in time
 
 Orbital magnetization related:
   ORBITALMAG=     F  switch on orbital magnetization
   LCHIMAG   =     F  perturbation theory with respect to B field
   DQ        =  0.001000  dq finite difference perturbation B field
   LLRAUG    =     F  two centre corrections for induced B field



--------------------------------------------------------------------------------------------------------


 molecular dynamics for ions
   using a microcanonical ensemble
 charge density and potential will be updated during run
 non-spin polarized calculation
 RMM-DIIS sequential band-by-band and
  variant of blocked Davidson during initial phase
 perform sub-space diagonalisation
    before iterative eigenvector-optimisation
 modified Broyden-mixing scheme, WC =      100.0
 initial mixing is a Kerker type mixing with AMIX =  0.4000 and BMIX =      1.0000
 Hartree-type preconditioning will be used
 using additional bands            4
 reciprocal scheme for non local part
 use partial core corrections
 calculate Harris-corrections to forces 
   (improved forces if not selfconsistent)
 use gradient corrections 
 use of overlap-Matrix (Vanderbilt PP)
 Gauss-broadening in eV      SIGMA  =   0.20


--------------------------------------------------------------------------------------------------------


  energy-cutoff  :      400.00
  volume of cell :     1026.45
      direct lattice vectors                 reciprocal lattice vectors
    10.178576127  0.000000000  0.000000000     0.098245569 -0.001147300 -0.002017631
     0.117828112 10.089856050  0.000000000     0.000000000  0.099109442 -0.000710362
     0.206091734  0.071635820  9.994598765     0.000000000  0.000000000  0.100054042

  length of vectors
    10.178576127 10.090544017  9.996980042     0.098272982  0.099111987  0.100054042


 
 k-points in units of 2pi/SCALE and weight: read from INCAR                         
   0.02456139  0.02449054  0.02433151       0.250
  -0.02456139  0.02506419  0.02534033       0.250
   0.02456139 -0.02506419  0.02468669       0.250
  -0.02456139 -0.02449054  0.02569551       0.250
 
 k-points in reciprocal lattice and weights: read from INCAR                         
   0.25000000  0.25000000  0.25000000       0.250
  -0.25000000  0.25000000  0.25000000       0.250
   0.25000000 -0.25000000  0.25000000       0.250
  -0.25000000 -0.25000000  0.25000000       0.250
 
 position of ions in fractional coordinates (direct lattice) 
   0.53857411  0.40737428  0.36026202
   0.39482841  0.48101176  0.43883360
   0.55216746  0.56544568  0.44268789
   0.52856700  0.41632431  0.53887987
   0.50332661  0.46716806  0.44534249
 
 position of ions in cartesian coordinates  (Angst):
   5.60416477  4.13615555  3.60067437
   4.16590768  4.88477559  4.38596571
   5.77813823  5.73697783  4.42448781
   5.54017288  4.23925541  5.38588810
   5.26997511  4.74556094  4.45101950
 


--------------------------------------------------------------------------------------------------------


 k-point  1 :   0.2500 0.2500 0.2500  plane waves:   18623
 k-point  2 :  -0.2500 0.2500 0.2500  plane waves:   18645
 k-point  3 :   0.2500-0.2500 0.2500  plane waves:   18643
 k-point  4 :  -0.2500-0.2500 0.2500  plane waves:   18662

 maximum and minimum number of plane-waves per node :      4685     4628

 maximum number of plane-waves:     18662
 maximum index in each direction: 
   IXMAX=   16   IYMAX=   16   IZMAX=   16
   IXMIN=  -16   IYMIN=  -16   IZMIN=  -16


 parallel 3D FFT for wavefunctions:
    minimum data exchange during FFTs selected (reduces bandwidth)
 parallel 3D FFT for charge:
    minimum data exchange during FFTs selected (reduces bandwidth)


 total amount of memory used by VASP MPI-rank0    55474. kBytes
=======================================================================

   base      :      30000. kBytes
   nonl-proj :       2765. kBytes
   fftplans  :       8576. kBytes
   grid      :      13527. kBytes
   one-center:          6. kBytes
   wavefun   :        600. kBytes
 
     INWAV:  cpu time    0.0000: real time    0.0001
 Broyden mixing: mesh for mixing (old mesh)
   NGX = 33   NGY = 33   NGZ = 33
  (NGX  =140   NGY  =140   NGZ  =140)
  gives a total of  35937 points

 initial charge density was supplied:
 charge density of overlapping atoms calculated
 number of electron       8.0000000 magnetization 
 keeping initial charge density in first step


--------------------------------------------------------------------------------------------------------


 Maximum index for augmentation-charges          169 (set IRDMAX)


--------------------------------------------------------------------------------------------------------


 First call to EWALD:  gamma=   0.176
 Maximum number of real-space cells 3x 3x 3
 Maximum number of reciprocal cells 3x 3x 3

    FEWALD:  cpu time    0.0027: real time    0.0027


--------------------------------------- Iteration      1(   1)  ---------------------------------------


    POTLOK:  cpu time    0.1762: real time    0.1895
    SETDIJ:  cpu time    0.0040: real time    0.0050
     EDDAV:  cpu time    0.2205: real time    0.2440
       DOS:  cpu time    0.0009: real time    0.0017
    --------------------------------------------
      LOOP:  cpu time    0.4016: real time    0.4402

 eigenvalue-minimisations  :    96
 total energy-change (2. order) : 0.1607446E+02  (-0.1919765E+03)
 number of electron       8.0000000 magnetization 
 augmentation part        8.0000000 magnetization 

 Free energy of the ion-electron system (eV)
  ---------------------------------------------------
  alpha Z        PSCENC =         0.23600861
  Ewald energy   TEWEN  =       127.70150766
  -Hartree energ DENC   =      -243.94455723
  -exchange      EXHF   =         0.00000000
  -V(xc)+E(xc)   XCENC  =        21.95876868
  PAW double counting   =       117.05815612     -117.66307307
  entropy T*S    EENTRO =        -0.00000002
  eigenvalues    EBANDS =       -86.31410577
  atomic energy  EATOM  =       197.04175453
  Solvation  Ediel_sol  =         0.00000000
  ---------------------------------------------------
  free energy    TOTEN  =        16.07445952 eV

  energy without entropy =       16.07445955  energy(sigma->0) =       16.07445954


--------------------------------------------------------------------------------------------------------




--------------------------------------- Iteration      1(   2)  ---------------------------------------


     EDDAV:  cpu time    0.1587: real time    0.1639
       DOS:  cpu time    0.0005: real time    0.0005
    --------------------------------------------
      LOOP:  cpu time    0.1592: real time    0.1644

 eigenvalue-minimisations  :    64
 total energy-change (2. order) :-0.3827792E+02  (-0.3827792E+02)
 number of electron       8.0000000 magnetization 
 augmentation part        8.0000000 magnetization 

 Free energy of the ion-electron system (eV)
  ---------------------------------------------------
  alpha Z        PSCENC =         0.23600861
  Ewald energy   TEWEN  =       127.70150766
  -Hartree energ DENC   =      -243.94455723
  -exchange      EXHF   =         0.00000000
  -V(xc)+E(xc)   XCENC  =        21.95876868
  PAW double counting   =       117.05815612     -117.66307307
  entropy T*S    EENTRO =        -0.00000000
  eigenvalues    EBANDS =      -124.59202992
  atomic energy  EATOM  =       197.04175453
  Solvation  Ediel_sol  =         0.00000000
  ---------------------------------------------------
  free energy    TOTEN  =       -22.20346461 eV

  energy without entropy =      -22.20346461  energy(sigma->0) =      -22.20346461


--------------------------------------------------------------------------------------------------------




--------------------------------------- Iteration      1(   3)  ---------------------------------------


     EDDAV:  cpu time    0.1604: real time    0.1653
       DOS:  cpu time    0.0002: real time    0.0002
    --------------------------------------------
      LOOP:  cpu time    0.1606: real time    0.1655

 eigenvalue-minimisations  :    64
 total energy-change (2. order) :-0.5001455E+01  (-0.5001455E+01)
 number of electron       8.0000000 magnetization 
 augmentation part        8.0000000 magnetization 

 Free energy of the ion-electron system (eV)
  ---------------------------------------------------
  alpha Z        PSCENC =         0.23600861
  Ewald energy   TEWEN  =       127.70150766
  -Hartree energ DENC   =      -243.94455723
  -exchange      EXHF   =         0.00000000
  -V(xc)+E(xc)   XCENC  =        21.95876868
  PAW double counting   =       117.05815612     -117.66307307
  entropy T*S    EENTRO =        -0.00000000
  eigenvalues    EBANDS =      -129.59348466
  atomic energy  EATOM  =       197.04175453
  Solvation  Ediel_sol  =         0.00000000
  ---------------------------------------------------
  free energy    TOTEN  =       -27.20491935 eV

  energy without entropy =      -27.20491935  energy(sigma->0) =      -27.20491935


--------------------------------------------------------------------------------------------------------




--------------------------------------- Iteration      1(   4)  ---------------------------------------


     EDDAV:  cpu time    0.2692: real time    0.2795
       DOS:  cpu time    0.0002: real time    0.0002
    --------------------------------------------
      LOOP:  cpu time    0.2695: real time    0.2797

 eigenvalue-minimisations  :   128
 total energy-change (2. order) :-0.2156543E+00  (-0.2156543E+00)
 number of electron       8.0000000 magnetization 
 augmentation part        8.0000000 magnetization 

 Free energy of the ion-electron system (eV)
  ---------------------------------------------------
  alpha Z        PSCENC =         0.23600861
  Ewald energy   TEWEN  =       127.70150766
  -Hartree energ DENC   =      -243.94455723
  -exchange      EXHF   =         0.00000000
  -V(xc)+E(xc)   XCENC  =        21.95876868
  PAW double counting   =       117.05815612     -117.66307307
  entropy T*S    EENTRO =        -0.00000000
  eigenvalues    EBANDS =      -129.80913891
  atomic energy  EATOM  =       197.04175453
  Solvation  Ediel_sol  =         0.00000000
  ---------------------------------------------------
  free energy    TOTEN  =       -27.42057360 eV

  energy without entropy =      -27.42057360  energy(sigma->0) =      -27.42057360


--------------------------------------------------------------------------------------------------------




--------------------------------------- Iteration      1(   5)  ---------------------------------------


     EDDAV:  cpu time    0.2908: real time    0.3037
       DOS:  cpu time    0.0003: real time    0.0003
    CHARGE:  cpu time    0.0236: real time    0.0244
    MIXING:  cpu time    0.0045: real time    0.0048
    --------------------------------------------
      LOOP:  cpu time    0.3193: real time    0.3332

 eigenvalue-minimisations  :    96
 total energy-change (2. order) :-0.8758242E-04  (-0.8758260E-04)
 number of electron       8.0000001 magnetization 
 augmentation part        0.2218997 magnetization 

 Broyden mixing:
  rms(total) = 0.85504E+00    rms(broyden)= 0.85483E+00
  rms(prec ) = 0.12111E+01
  weight for this iteration     100.00

 Free energy of the ion-electron system (eV)
  ---------------------------------------------------
  alpha Z        PSCENC =         0.23600861
  Ewald energy   TEWEN  =       127.70150766
  -Hartree energ DENC   =      -243.94455723
  -exchange      EXHF   =         0.00000000
  -V(xc)+E(xc)   XCENC  =        21.95876868
  PAW double counting   =       117.05815612     -117.66307307
  entropy T*S    EENTRO =        -0.00000000
  eigenvalues    EBANDS =      -129.80922649
  atomic energy  EATOM  =       197.04175453
  Solvation  Ediel_sol  =         0.00000000
  ---------------------------------------------------
  free energy    TOTEN  =       -27.42066118 eV

  energy without entropy =      -27.42066118  energy(sigma->0) =      -27.42066118


--------------------------------------------------------------------------------------------------------




--------------------------------------- Iteration      1(   6)  ---------------------------------------


    POTLOK:  cpu time    0.1672: real time    0.1727
    SETDIJ:  cpu time    0.0022: real time    0.0022
    EDDIAG:  cpu time    0.0450: real time    0.0550
  RMM-DIIS:  cpu time    0.1679: real time    0.1728
    ORTHCH:  cpu time    0.0024: real time    0.0024
       DOS:  cpu time    0.0002: real time    0.0002
    CHARGE:  cpu time    0.0219: real time    0.0225
    MIXING:  cpu time    0.0051: real time    0.0073
    --------------------------------------------
      LOOP:  cpu time    0.4119: real time    0.4351

 eigenvalue-minimisations  :    64
 total energy-change (2. order) : 0.2786618E+01  (-0.5134535E+00)
 number of electron       8.0000000 magnetization 
 augmentation part        0.1956081 magnetization 

 Broyden mixing:
  rms(total) = 0.42221E+00    rms(broyden)= 0.42212E+00
  rms(prec ) = 0.54698E+00
  weight for this iteration     100.00

 eigenvalues of (default mixing * dielectric matrix)
  average eigenvalue GAMMA=   1.2988
  1.2988

 Free energy of the ion-electron system (eV)
  ---------------------------------------------------
  alpha Z        PSCENC =         0.23600861
  Ewald energy   TEWEN  =       127.70150766
  -Hartree energ DENC   =      -263.30716225
  -exchange      EXHF   =         0.00000000
  -V(xc)+E(xc)   XCENC  =        23.13437690
  PAW double counting   =       235.32233464     -236.09701184
  entropy T*S    EENTRO =        -0.00000000
  eigenvalues    EBANDS =      -108.66585111
  atomic energy  EATOM  =       197.04175453
  Solvation  Ediel_sol  =         0.00000000
  ---------------------------------------------------
  free energy    TOTEN  =       -24.63404286 eV

  energy without entropy =      -24.63404286  energy(sigma->0) =      -24.63404286


--------------------------------------------------------------------------------------------------------




--------------------------------------- Iteration      1(   7)  ---------------------------------------


    POTLOK:  cpu time    0.1566: real time    0.1625
    SETDIJ:  cpu time    0.0021: real time    0.0021
    EDDIAG:  cpu time    0.0391: real time    0.0399
  RMM-DIIS:  cpu time    0.1600: real time    0.1643
    ORTHCH:  cpu time    0.0017: real time    0.0017
       DOS:  cpu time    0.0002: real time    0.0002
    CHARGE:  cpu time    0.0198: real time    0.0202
    MIXING:  cpu time    0.0050: real time    0.0053
    --------------------------------------------
      LOOP:  cpu time    0.3845: real time    0.3961

 eigenvalue-minimisations  :    64
 total energy-change (2. order) : 0.4730554E+00  (-0.1126482E+00)
 number of electron       8.0000000 magnetization 
 augmentation part        0.1854902 magnetization 

 Broyden mixing:
  rms(total) = 0.22524E+00    rms(broyden)= 0.22518E+00
  rms(prec ) = 0.27263E+00
  weight for this iteration     100.00

 eigenvalues of (default mixing * dielectric matrix)
  average eigenvalue GAMMA=   1.8401
  1.4464  2.2338

 Free energy of the ion-electron system (eV)
  ---------------------------------------------------
  alpha Z        PSCENC =         0.23600861
  Ewald energy   TEWEN  =       127.70150766
  -Hartree energ DENC   =      -274.63224453
  -exchange      EXHF   =         0.00000000
  -V(xc)+E(xc)   XCENC  =        23.96955616
  PAW double counting   =       356.73778802     -357.54894520
  entropy T*S    EENTRO =        -0.00000000
  eigenvalues    EBANDS =       -97.66641275
  atomic energy  EATOM  =       197.04175453
  Solvation  Ediel_sol  =         0.00000000
  ---------------------------------------------------
  free energy    TOTEN  =       -24.16098748 eV

  energy without entropy =      -24.16098748  energy(sigma->0) =      -24.16098748


--------------------------------------------------------------------------------------------------------




--------------------------------------- Iteration      1(   8)  ---------------------------------------


    POTLOK:  cpu time    0.1538: real time    0.1570
    SETDIJ:  cpu time    0.0020: real time    0.0021
    EDDIAG:  cpu time    0.0390: real time    0.0398
  RMM-DIIS:  cpu time    0.1667: real time    0.1707
    ORTHCH:  cpu time    0.0021: real time    0.0022
       DOS:  cpu time    0.0002: real time    0.0002
    CHARGE:  cpu time    0.0195: real time    0.0202
    MIXING:  cpu time    0.0050: real time    0.0051
    --------------------------------------------
      LOOP:  cpu time    0.3885: real time    0.3972

 eigenvalue-minimisations  :    64
 total energy-change (2. order) : 0.1447291E+00  (-0.1620417E-01)
 number of electron       8.0000000 magnetization 
 augmentation part        0.1841370 magnetization 

 Broyden mixing:
  rms(total) = 0.22756E-01    rms(broyden)= 0.22734E-01
  rms(prec ) = 0.52275E-01
  weight for this iteration     100.00

 eigenvalues of (default mixing * dielectric matrix)
  average eigenvalue GAMMA=   1.5427
  2.2484  0.9827  1.3970

 Free energy of the ion-electron system (eV)
  ---------------------------------------------------
  alpha Z        PSCENC =         0.23600861
  Ewald energy   TEWEN  =       127.70150766
  -Hartree energ DENC   =      -280.02352644
  -exchange      EXHF   =         0.00000000
  -V(xc)+E(xc)   XCENC  =        24.50437876
  PAW double counting   =       461.90971402     -462.68931289
  entropy T*S    EENTRO =        -0.00000000
  eigenvalues    EBANDS =       -92.69678264
  atomic energy  EATOM  =       197.04175453
  Solvation  Ediel_sol  =         0.00000000
  ---------------------------------------------------
  free energy    TOTEN  =       -24.01625839 eV

  energy without entropy =      -24.01625839  energy(sigma->0) =      -24.01625839


--------------------------------------------------------------------------------------------------------




--------------------------------------- Iteration      1(   9)  ---------------------------------------


    POTLOK:  cpu time    0.1528: real time    0.1561
    SETDIJ:  cpu time    0.0024: real time    0.0024
    EDDIAG:  cpu time    0.0387: real time    0.0395
  RMM-DIIS:  cpu time    0.1652: real time    0.1685
    ORTHCH:  cpu time    0.0020: real time    0.0020
       DOS:  cpu time    0.0002: real time    0.0003
    CHARGE:  cpu time    0.0203: real time    0.0207
    MIXING:  cpu time    0.0052: real time    0.0053
    --------------------------------------------
      LOOP:  cpu time    0.3866: real time    0.3946

 eigenvalue-minimisations  :    64
 total energy-change (2. order) : 0.5566557E-02  (-0.1080461E-02)
 number of electron       8.0000000 magnetization 
 augmentation part        0.1835876 magnetization 

 Broyden mixing:
  rms(total) = 0.19333E-01    rms(broyden)= 0.19329E-01
  rms(prec ) = 0.40003E-01
  weight for this iteration     100.00

 eigenvalues of (default mixing * dielectric matrix)
  average eigenvalue GAMMA=   2.0890
  3.0600  2.9286  1.0025  1.3650

 Free energy of the ion-electron system (eV)
  ---------------------------------------------------
  alpha Z        PSCENC =         0.23600861
  Ewald energy   TEWEN  =       127.70150766
  -Hartree energ DENC   =      -281.25948542
  -exchange      EXHF   =         0.00000000
  -V(xc)+E(xc)   XCENC  =        24.57189247
  PAW double counting   =       464.71220813     -465.49453677
  entropy T*S    EENTRO =        -0.00000000
  eigenvalues    EBANDS =       -91.52004105
  atomic energy  EATOM  =       197.04175453
  Solvation  Ediel_sol  =         0.00000000
  ---------------------------------------------------
  free energy    TOTEN  =       -24.01069184 eV

  energy without entropy =      -24.01069184  energy(sigma->0) =      -24.01069184


--------------------------------------------------------------------------------------------------------




--------------------------------------- Iteration      1(  10)  ---------------------------------------


    POTLOK:  cpu time    0.1489: real time    0.1548
    SETDIJ:  cpu time    0.0021: real time    0.0021
    EDDIAG:  cpu time    0.0390: real time    0.0392
  RMM-DIIS:  cpu time    0.1660: real time    0.1662
    ORTHCH:  cpu time    0.0020: real time    0.0020
       DOS:  cpu time    0.0002: real time    0.0002
    CHARGE:  cpu time    0.0200: real time    0.0202
    MIXING:  cpu time    0.0057: real time    0.0070
    --------------------------------------------
      LOOP:  cpu time    0.3840: real time    0.3916

 eigenvalue-minimisations  :    64
 total energy-change (2. order) : 0.6365136E-02  (-0.2459592E-02)
 number of electron       8.0000000 magnetization 
 augmentation part        0.1825517 magnetization 

 Broyden mixing:
  rms(total) = 0.27407E-01    rms(broyden)= 0.27405E-01
  rms(prec ) = 0.35074E-01
  weight for this iteration     100.00

 eigenvalues of (default mixing * dielectric matrix)
  average eigenvalue GAMMA=   1.7863
  3.0794  2.4153  1.2271  1.2271  0.9826

 Free energy of the ion-electron system (eV)
  ---------------------------------------------------
  alpha Z        PSCENC =         0.23600861
  Ewald energy   TEWEN  =       127.70150766
  -Hartree energ DENC   =      -283.44566552
  -exchange      EXHF   =         0.00000000
  -V(xc)+E(xc)   XCENC  =        24.64254005
  PAW double counting   =       449.34857346     -450.13437919
  entropy T*S    EENTRO =        -0.00000000
  eigenvalues    EBANDS =       -89.39466631
  atomic energy  EATOM  =       197.04175453
  Solvation  Ediel_sol  =         0.00000000
  ---------------------------------------------------
  free energy    TOTEN  =       -24.00432670 eV

  energy without entropy =      -24.00432670  energy(sigma->0) =      -24.00432670


--------------------------------------------------------------------------------------------------------




--------------------------------------- Iteration      1(  11)  ---------------------------------------


    POTLOK:  cpu time    0.1472: real time    0.1507
    SETDIJ:  cpu time    0.0023: real time    0.0023
    EDDIAG:  cpu time    0.0381: real time    0.0389
  RMM-DIIS:  cpu time    0.1623: real time    0.1660
    ORTHCH:  cpu time    0.0019: real time    0.0019
       DOS:  cpu time    0.0002: real time    0.0002
    CHARGE:  cpu time    0.0207: real time    0.0211
    MIXING:  cpu time    0.0054: real time    0.0055
    --------------------------------------------
      LOOP:  cpu time    0.3780: real time    0.3865

 eigenvalue-minimisations  :    64
 total energy-change (2. order) :-0.8092179E-03  (-0.8558147E-03)
 number of electron       8.0000000 magnetization 
 augmentation part        0.1829297 magnetization 

 Broyden mixing:
  rms(total) = 0.88373E-02    rms(broyden)= 0.88340E-02
  rms(prec ) = 0.14548E-01
  weight for this iteration     100.00

 eigenvalues of (default mixing * dielectric matrix)
  average eigenvalue GAMMA=   2.2906
  4.9211  3.0954  2.4282  1.2678  1.0155  1.0155

 Free energy of the ion-electron system (eV)
  ---------------------------------------------------
  alpha Z        PSCENC =         0.23600861
  Ewald energy   TEWEN  =       127.70150766
  -Hartree energ DENC   =      -283.33423868
  -exchange      EXHF   =         0.00000000
  -V(xc)+E(xc)   XCENC  =        24.65653598
  PAW double counting   =       458.26096779     -459.03914714
  entropy T*S    EENTRO =        -0.00000000
  eigenvalues    EBANDS =       -89.52852468
  atomic energy  EATOM  =       197.04175453
  Solvation  Ediel_sol  =         0.00000000
  ---------------------------------------------------
  free energy    TOTEN  =       -24.00513592 eV

  energy without entropy =      -24.00513592  energy(sigma->0) =      -24.00513592


--------------------------------------------------------------------------------------------------------




--------------------------------------- Iteration      1(  12)  ---------------------------------------


    POTLOK:  cpu time    0.1377: real time    0.1428
    SETDIJ:  cpu time    0.0020: real time    0.0021
    EDDIAG:  cpu time    0.0381: real time    0.0384
  RMM-DIIS:  cpu time    0.1665: real time    0.1720
    ORTHCH:  cpu time    0.0018: real time    0.0018
       DOS:  cpu time    0.0002: real time    0.0002
    CHARGE:  cpu time    0.0204: real time    0.0209
    MIXING:  cpu time    0.0055: real time    0.0056
    --------------------------------------------
      LOOP:  cpu time    0.3724: real time    0.3838

 eigenvalue-minimisations  :    64
 total energy-change (2. order) :-0.9452072E-02  (-0.3295233E-03)
 number of electron       8.0000000 magnetization 
 augmentation part        0.1831336 magnetization 

 Broyden mixing:
  rms(total) = 0.12276E-01    rms(broyden)= 0.12275E-01
  rms(prec ) = 0.16083E-01
  weight for this iteration     100.00

 eigenvalues of (default mixing * dielectric matrix)
  average eigenvalue GAMMA=   2.0227
  4.8603  2.9574  2.4279  1.2229  1.0100  1.0100  0.6707

 Free energy of the ion-electron system (eV)
  ---------------------------------------------------
  alpha Z        PSCENC =         0.23600861
  Ewald energy   TEWEN  =       127.70150766
  -Hartree energ DENC   =      -283.54409543
  -exchange      EXHF   =         0.00000000
  -V(xc)+E(xc)   XCENC  =        24.64816141
  PAW double counting   =       455.15296757     -455.93026393
  entropy T*S    EENTRO =        -0.00000000
  eigenvalues    EBANDS =       -89.32062842
  atomic energy  EATOM  =       197.04175453
  Solvation  Ediel_sol  =         0.00000000
  ---------------------------------------------------
  free energy    TOTEN  =       -24.01458799 eV

  energy without entropy =      -24.01458799  energy(sigma->0) =      -24.01458799


--------------------------------------------------------------------------------------------------------




--------------------------------------- Iteration      1(  13)  ---------------------------------------


    POTLOK:  cpu time    0.1391: real time    0.1433
    SETDIJ:  cpu time    0.0020: real time    0.0026
    EDDIAG:  cpu time    0.0393: real time    0.0402
  RMM-DIIS:  cpu time    0.1654: real time    0.1707
    ORTHCH:  cpu time    0.0019: real time    0.0019
       DOS:  cpu time    0.0002: real time    0.0002
    CHARGE:  cpu time    0.0197: real time    0.0202
    MIXING:  cpu time    0.0057: real time    0.0058
    --------------------------------------------
      LOOP:  cpu time    0.3733: real time    0.3849

 eigenvalue-minimisations  :    64
 total energy-change (2. order) :-0.5130443E-03  (-0.9693916E-04)
 number of electron       8.0000000 magnetization 
 augmentation part        0.1828960 magnetization 

 Broyden mixing:
  rms(total) = 0.48890E-02    rms(broyden)= 0.48888E-02
  rms(prec ) = 0.66905E-02
  weight for this iteration     100.00

 eigenvalues of (default mixing * dielectric matrix)
  average eigenvalue GAMMA=   2.4736
  6.2982  4.2646  2.5323  2.4086  1.2062  1.2062  0.9984  0.8741

 Free energy of the ion-electron system (eV)
  ---------------------------------------------------
  alpha Z        PSCENC =         0.23600861
  Ewald energy   TEWEN  =       127.70150766
  -Hartree energ DENC   =      -283.72316651
  -exchange      EXHF   =         0.00000000
  -V(xc)+E(xc)   XCENC  =        24.65315806
  PAW double counting   =       454.96738464     -455.74700614
  entropy T*S    EENTRO =        -0.00000000
  eigenvalues    EBANDS =       -89.14474189
  atomic energy  EATOM  =       197.04175453
  Solvation  Ediel_sol  =         0.00000000
  ---------------------------------------------------
  free energy    TOTEN  =       -24.01510104 eV

  energy without entropy =      -24.01510104  energy(sigma->0) =      -24.01510104


--------------------------------------------------------------------------------------------------------




--------------------------------------- Iteration      1(  14)  ---------------------------------------


    POTLOK:  cpu time    0.1375: real time    0.1416
    SETDIJ:  cpu time    0.0021: real time    0.0021
    EDDIAG:  cpu time    0.0390: real time    0.0398
  RMM-DIIS:  cpu time    0.1669: real time    0.1721
    ORTHCH:  cpu time    0.0019: real time    0.0019
       DOS:  cpu time    0.0002: real time    0.0003
    CHARGE:  cpu time    0.0195: real time    0.0201
    MIXING:  cpu time    0.0061: real time    0.0063
    --------------------------------------------
      LOOP:  cpu time    0.3731: real time    0.3841

 eigenvalue-minimisations  :    64
 total energy-change (2. order) :-0.2879662E-02  (-0.1533081E-03)
 number of electron       8.0000000 magnetization 
 augmentation part        0.1827472 magnetization 

 Broyden mixing:
  rms(total) = 0.37050E-02    rms(broyden)= 0.37033E-02
  rms(prec ) = 0.47809E-02
  weight for this iteration     100.00

 eigenvalues of (default mixing * dielectric matrix)
  average eigenvalue GAMMA=   2.3451
  6.5431  4.1499  2.5828  2.3955  1.1757  1.1757  1.1707  0.9560  0.9560

 Free energy of the ion-electron system (eV)
  ---------------------------------------------------
  alpha Z        PSCENC =         0.23600861
  Ewald energy   TEWEN  =       127.70150766
  -Hartree energ DENC   =      -283.73883949
  -exchange      EXHF   =         0.00000000
  -V(xc)+E(xc)   XCENC  =        24.64356186
  PAW double counting   =       454.18797019     -454.96915208
  entropy T*S    EENTRO =        -0.00000000
  eigenvalues    EBANDS =       -89.12079198
  atomic energy  EATOM  =       197.04175453
  Solvation  Ediel_sol  =         0.00000000
  ---------------------------------------------------
  free energy    TOTEN  =       -24.01798070 eV

  energy without entropy =      -24.01798070  energy(sigma->0) =      -24.01798070


--------------------------------------------------------------------------------------------------------




--------------------------------------- Iteration      1(  15)  ---------------------------------------


    POTLOK:  cpu time    0.1362: real time    0.1423
    SETDIJ:  cpu time    0.0019: real time    0.0020
    EDDIAG:  cpu time    0.0407: real time    0.0423
  RMM-DIIS:  cpu time    0.1663: real time    0.1731
    ORTHCH:  cpu time    0.0019: real time    0.0019
       DOS:  cpu time    0.0003: real time    0.0004
    CHARGE:  cpu time    0.0195: real time    0.0199
    MIXING:  cpu time    0.0061: real time    0.0063
    --------------------------------------------
      LOOP:  cpu time    0.3729: real time    0.3881

 eigenvalue-minimisations  :    64
 total energy-change (2. order) :-0.2022289E-03  (-0.4595679E-05)
 number of electron       8.0000000 magnetization 
 augmentation part        0.1827214 magnetization 

 Broyden mixing:
  rms(total) = 0.19732E-02    rms(broyden)= 0.19730E-02
  rms(prec ) = 0.25793E-02
  weight for this iteration     100.00

 eigenvalues of (default mixing * dielectric matrix)
  average eigenvalue GAMMA=   2.5724
  7.6659  4.9119  2.9873  2.6087  2.1659  1.2531  1.2531  1.0054  0.9702  0.9030

 Free energy of the ion-electron system (eV)
  ---------------------------------------------------
  alpha Z        PSCENC =         0.23600861
  Ewald energy   TEWEN  =       127.70150766
  -Hartree energ DENC   =      -283.72073877
  -exchange      EXHF   =         0.00000000
  -V(xc)+E(xc)   XCENC  =        24.64358056
  PAW double counting   =       454.39049035     -455.17095906
  entropy T*S    EENTRO =        -0.00000000
  eigenvalues    EBANDS =       -89.13982681
  atomic energy  EATOM  =       197.04175453
  Solvation  Ediel_sol  =         0.00000000
  ---------------------------------------------------
  free energy    TOTEN  =       -24.01818293 eV

  energy without entropy =      -24.01818293  energy(sigma->0) =      -24.01818293


--------------------------------------------------------------------------------------------------------




--------------------------------------- Iteration      1(  16)  ---------------------------------------


    POTLOK:  cpu time    0.1398: real time    0.1438
    SETDIJ:  cpu time    0.0022: real time    0.0022
    EDDIAG:  cpu time    0.0390: real time    0.0402
  RMM-DIIS:  cpu time    0.1663: real time    0.1711
    ORTHCH:  cpu time    0.0017: real time    0.0017
       DOS:  cpu time    0.0002: real time    0.0002
    CHARGE:  cpu time    0.0202: real time    0.0204
    MIXING:  cpu time    0.0063: real time    0.0063
    --------------------------------------------
      LOOP:  cpu time    0.3756: real time    0.3857

 eigenvalue-minimisations  :    64
 total energy-change (2. order) :-0.2178469E-03  (-0.2037842E-04)
 number of electron       8.0000000 magnetization 
 augmentation part        0.1828015 magnetization 

 Broyden mixing:
  rms(total) = 0.13767E-02    rms(broyden)= 0.13761E-02
  rms(prec ) = 0.18141E-02
  weight for this iteration     100.00

 eigenvalues of (default mixing * dielectric matrix)
  average eigenvalue GAMMA=   2.5084
  7.8787  4.8842  3.5637  2.4165  2.3382  1.2587  1.2587  1.0585  1.0585  0.9382
  0.9382

 Free energy of the ion-electron system (eV)
  ---------------------------------------------------
  alpha Z        PSCENC =         0.23600861
  Ewald energy   TEWEN  =       127.70150766
  -Hartree energ DENC   =      -283.67235394
  -exchange      EXHF   =         0.00000000
  -V(xc)+E(xc)   XCENC  =        24.64229792
  PAW double counting   =       454.47262295     -455.25230173
  entropy T*S    EENTRO =        -0.00000000
  eigenvalues    EBANDS =       -89.18793678
  atomic energy  EATOM  =       197.04175453
  Solvation  Ediel_sol  =         0.00000000
  ---------------------------------------------------
  free energy    TOTEN  =       -24.01840077 eV

  energy without entropy =      -24.01840077  energy(sigma->0) =      -24.01840077


--------------------------------------------------------------------------------------------------------




--------------------------------------- Iteration      1(  17)  ---------------------------------------


    POTLOK:  cpu time    0.1418: real time    0.1446
    SETDIJ:  cpu time    0.0021: real time    0.0021
    EDDIAG:  cpu time    0.0380: real time    0.0385
  RMM-DIIS:  cpu time    0.1686: real time    0.1707
    ORTHCH:  cpu time    0.0018: real time    0.0018
       DOS:  cpu time    0.0002: real time    0.0002
    CHARGE:  cpu time    0.0199: real time    0.0202
    MIXING:  cpu time    0.0067: real time    0.0068
    --------------------------------------------
      LOOP:  cpu time    0.3791: real time    0.3848

 eigenvalue-minimisations  :    64
 total energy-change (2. order) :-0.2067322E-04  (-0.3475841E-05)
 number of electron       8.0000000 magnetization 
 augmentation part        0.1827657 magnetization 

 Broyden mixing:
  rms(total) = 0.18742E-03    rms(broyden)= 0.18737E-03
  rms(prec ) = 0.26899E-03
  weight for this iteration     100.00

 eigenvalues of (default mixing * dielectric matrix)
  average eigenvalue GAMMA=   2.5961
  8.4620  5.2788  3.8900  2.6536  2.4491  1.8865  1.3111  1.3111  1.0571  1.0130
  0.9422  0.8991

 Free energy of the ion-electron system (eV)
  ---------------------------------------------------
  alpha Z        PSCENC =         0.23600861
  Ewald energy   TEWEN  =       127.70150766
  -Hartree energ DENC   =      -283.72063966
  -exchange      EXHF   =         0.00000000
  -V(xc)+E(xc)   XCENC  =        24.64445927
  PAW double counting   =       454.46150573     -455.24163019
  entropy T*S    EENTRO =        -0.00000000
  eigenvalues    EBANDS =       -89.14138740
  atomic energy  EATOM  =       197.04175453
  Solvation  Ediel_sol  =         0.00000000
  ---------------------------------------------------
  free energy    TOTEN  =       -24.01842145 eV

  energy without entropy =      -24.01842145  energy(sigma->0) =      -24.01842145


--------------------------------------------------------------------------------------------------------




--------------------------------------- Iteration      1(  18)  ---------------------------------------


    POTLOK:  cpu time    0.1439: real time    0.1467
    SETDIJ:  cpu time    0.0022: real time    0.0022
    EDDIAG:  cpu time    0.0380: real time    0.0385
  RMM-DIIS:  cpu time    0.1339: real time    0.1368
    ORTHCH:  cpu time    0.0017: real time    0.0017
       DOS:  cpu time    0.0002: real time    0.0002
    CHARGE:  cpu time    0.0196: real time    0.0199
    MIXING:  cpu time    0.0069: real time    0.0069
    --------------------------------------------
      LOOP:  cpu time    0.3463: real time    0.3529

 eigenvalue-minimisations  :    48
 total energy-change (2. order) :-0.1453663E-04  (-0.1508104E-06)
 number of electron       8.0000000 magnetization 
 augmentation part        0.1827625 magnetization 

 Broyden mixing:
  rms(total) = 0.89096E-04    rms(broyden)= 0.89022E-04
  rms(prec ) = 0.13232E-03
  weight for this iteration     100.00

 eigenvalues of (default mixing * dielectric matrix)
  average eigenvalue GAMMA=   2.5832
  8.5574  5.4179  3.8737  3.1129  2.4938  2.2312  1.2982  1.2982  1.2112  1.2112
  0.8967  0.9899  0.9899

 Free energy of the ion-electron system (eV)
  ---------------------------------------------------
  alpha Z        PSCENC =         0.23600861
  Ewald energy   TEWEN  =       127.70150766
  -Hartree energ DENC   =      -283.71207751
  -exchange      EXHF   =         0.00000000
  -V(xc)+E(xc)   XCENC  =        24.64375599
  PAW double counting   =       454.37101687     -455.15112765
  entropy T*S    EENTRO =        -0.00000000
  eigenvalues    EBANDS =       -89.14927448
  atomic energy  EATOM  =       197.04175453
  Solvation  Ediel_sol  =         0.00000000
  ---------------------------------------------------
  free energy    TOTEN  =       -24.01843598 eV

  energy without entropy =      -24.01843598  energy(sigma->0) =      -24.01843598


--------------------------------------------------------------------------------------------------------




--------------------------------------- Iteration      1(  19)  ---------------------------------------


    POTLOK:  cpu time    0.1456: real time    0.1474
    SETDIJ:  cpu time    0.0022: real time    0.0021
    EDDIAG:  cpu time    0.0384: real time    0.0389
  RMM-DIIS:  cpu time    0.1342: real time    0.1364
    ORTHCH:  cpu time    0.0017: real time    0.0017
       DOS:  cpu time    0.0002: real time    0.0002
    CHARGE:  cpu time    0.0199: real time    0.0201
    MIXING:  cpu time    0.0068: real time    0.0069
    --------------------------------------------
      LOOP:  cpu time    0.3488: real time    0.3537

 eigenvalue-minimisations  :    48
 total energy-change (2. order) :-0.2655042E-05  (-0.3683953E-07)
 number of electron       8.0000000 magnetization 
 augmentation part        0.1827617 magnetization 

 Broyden mixing:
  rms(total) = 0.89300E-04    rms(broyden)= 0.89282E-04
  rms(prec ) = 0.11564E-03
  weight for this iteration     100.00

 eigenvalues of (default mixing * dielectric matrix)
  average eigenvalue GAMMA=   2.5573
  8.5978  5.5519  4.0286  3.2104  2.5648  2.4268  1.9528  1.2992  1.2992  1.0625
  0.8917  0.9893  0.9639  0.9639

 Free energy of the ion-electron system (eV)
  ---------------------------------------------------
  alpha Z        PSCENC =         0.23600861
  Ewald energy   TEWEN  =       127.70150766
  -Hartree energ DENC   =      -283.70857542
  -exchange      EXHF   =         0.00000000
  -V(xc)+E(xc)   XCENC  =        24.64349930
  PAW double counting   =       454.35505777     -455.13515207
  entropy T*S    EENTRO =        -0.00000000
  eigenvalues    EBANDS =       -89.15253903
  atomic energy  EATOM  =       197.04175453
  Solvation  Ediel_sol  =         0.00000000
  ---------------------------------------------------
  free energy    TOTEN  =       -24.01843864 eV

  energy without entropy =      -24.01843864  energy(sigma->0) =      -24.01843864


--------------------------------------------------------------------------------------------------------




--------------------------------------- Iteration      1(  20)  ---------------------------------------


    POTLOK:  cpu time    0.1473: real time    0.1489
    SETDIJ:  cpu time    0.0022: real time    0.0022
    EDDIAG:  cpu time    0.0376: real time    0.0390
  RMM-DIIS:  cpu time    0.1340: real time    0.1372
    ORTHCH:  cpu time    0.0016: real time    0.0016
       DOS:  cpu time    0.0002: real time    0.0004
    CHARGE:  cpu time    0.0195: real time    0.0196
    MIXING:  cpu time    0.0071: real time    0.0072
    --------------------------------------------
      LOOP:  cpu time    0.3496: real time    0.3563

 eigenvalue-minimisations  :    48
 total energy-change (2. order) :-0.1408831E-05  (-0.1193694E-07)
 number of electron       8.0000000 magnetization 
 augmentation part        0.1827625 magnetization 

 Broyden mixing:
  rms(total) = 0.22810E-04    rms(broyden)= 0.22802E-04
  rms(prec ) = 0.28006E-04
  weight for this iteration     100.00

 eigenvalues of (default mixing * dielectric matrix)
  average eigenvalue GAMMA=   2.5103
  8.6081  5.6249  4.0529  3.7291  2.4478  2.4478  2.0438  1.2945  1.2945  1.1129
  1.0856  1.0856  0.8900  0.9689  0.9689

 Free energy of the ion-electron system (eV)
  ---------------------------------------------------
  alpha Z        PSCENC =         0.23600861
  Ewald energy   TEWEN  =       127.70150766
  -Hartree energ DENC   =      -283.70672001
  -exchange      EXHF   =         0.00000000
  -V(xc)+E(xc)   XCENC  =        24.64343914
  PAW double counting   =       454.36253749     -455.14259905
  entropy T*S    EENTRO =        -0.00000000
  eigenvalues    EBANDS =       -89.15436843
  atomic energy  EATOM  =       197.04175453
  Solvation  Ediel_sol  =         0.00000000
  ---------------------------------------------------
  free energy    TOTEN  =       -24.01844005 eV

  energy without entropy =      -24.01844005  energy(sigma->0) =      -24.01844005


--------------------------------------------------------------------------------------------------------




--------------------------------------- Iteration      1(  21)  ---------------------------------------


    POTLOK:  cpu time    0.1495: real time    0.1513
    SETDIJ:  cpu time    0.0022: real time    0.0022
    EDDIAG:  cpu time    0.0379: real time    0.0384
  RMM-DIIS:  cpu time    0.1133: real time    0.1146
    ORTHCH:  cpu time    0.0017: real time    0.0017
       DOS:  cpu time    0.0002: real time    0.0002
    --------------------------------------------
      LOOP:  cpu time    0.3047: real time    0.3083

 eigenvalue-minimisations  :    32
 total energy-change (2. order) :-0.3148094E-06  ( 0.0000000E+00)
 number of electron       8.0000000 magnetization 
 augmentation part        0.1827625 magnetization 

 Free energy of the ion-electron system (eV)
  ---------------------------------------------------
  alpha Z        PSCENC =         0.23600861
  Ewald energy   TEWEN  =       127.70150766
  -Hartree energ DENC   =      -283.70692619
  -exchange      EXHF   =         0.00000000
  -V(xc)+E(xc)   XCENC  =        24.64345674
  PAW double counting   =       454.36488890     -455.14495203
  entropy T*S    EENTRO =        -0.00000000
  eigenvalues    EBANDS =       -89.15417859
  atomic energy  EATOM  =       197.04175453
  Solvation  Ediel_sol  =         0.00000000
  ---------------------------------------------------
  free energy    TOTEN  =       -24.01844036 eV

  energy without entropy =      -24.01844036  energy(sigma->0) =      -24.01844036


--------------------------------------------------------------------------------------------------------




 average (electrostatic) potential at core
  the test charge radii are     0.5201  0.6991
  (the norm of the test charge is              1.0000)
       1 -41.4935       2 -41.3833       3 -41.3753       4 -41.5078       5 -58.0202
 
 
 
 E-fermi :  -8.2047     XC(G=0):  -0.6878     alpha+bet : -0.2052


 k-point     1 :       0.2500    0.2500    0.2500
  band No.  band energies     occupation 
      1     -16.8168      2.00000
      2      -9.3205      2.00000
      3      -9.2476      2.00000
      4      -9.1919      2.00000
      5      -0.3331      0.00000
      6       0.5543      0.00000
      7       0.6648      0.00000
      8       0.6942      0.00000

 k-point     2 :      -0.2500    0.2500    0.2500
  band No.  band energies     occupation 
      1     -16.8168      2.00000
      2      -9.3206      2.00000
      3      -9.2477      2.00000
      4      -9.1920      2.00000
      5      -0.3275      0.00000
      6       0.5371      0.00000
      7       0.6484      0.00000
      8       0.6823      0.00000

 k-point     3 :       0.2500   -0.2500    0.2500
  band No.  band energies     occupation 
      1     -16.8168      2.00000
      2      -9.3206      2.00000
      3      -9.2477      2.00000
      4      -9.1920      2.00000
      5      -0.3298      0.00000
      6       0.5420      0.00000
      7       0.6573      0.00000
      8       0.6868      0.00000

 k-point     4 :      -0.2500   -0.2500    0.2500
  band No.  band energies     occupation 
      1     -16.8168      2.00000
      2      -9.3207      2.00000
      3      -9.2478      2.00000
      4      -9.1920      2.00000
      5      -0.3281      0.00000
      6       0.5441      0.00000
      7       0.6519      0.00000
      8       0.6799      0.00000


--------------------------------------------------------------------------------------------------------


 soft charge-density along one line, spin component           1
         0         1         2         3         4         5         6         7         8         9
 total charge-density along one line
 
 pseudopotential strength for first ion, spin component:           1
 -2.341  -4.034  -0.001  -0.001   0.001
 -4.034  -6.865  -0.003  -0.004   0.002
 -0.001  -0.003  -0.337   0.002  -0.001
 -0.001  -0.004   0.002  -0.336  -0.001
  0.001   0.002  -0.001  -0.001  -0.338
 total augmentation occupancy for first ion, spin component:           1
  3.542  -0.638   0.238   0.332  -0.131
 -0.638   0.129  -0.044  -0.062   0.024
  0.238  -0.044   0.022   0.019  -0.007
  0.332  -0.062   0.019   0.035  -0.010
 -0.131   0.024  -0.007  -0.010   0.013


------------------------ aborting loop because EDIFF is reached ----------------------------------------


    CHARGE:  cpu time    0.0195: real time    0.0198
    FORLOC:  cpu time    0.0142: real time    0.0143
    FORNL :  cpu time    0.0214: real time    0.0215
    STRESS:  cpu time    0.1592: real time    0.1619
    FORCOR:  cpu time    0.1465: real time    0.1478
    FORHAR:  cpu time    0.0445: real time    0.0450
    MIXING:  cpu time    0.0068: real time    0.0068
    OFIELD:  cpu time    0.0001: real time    0.0001

  FORCE on cell =-STRESS in cart. coord.  units (eV):
  Direction    XX          YY          ZZ          XY          YZ          ZX
  --------------------------------------------------------------------------------------
  Alpha Z     0.23601     0.23601     0.23601
  Ewald      41.56496    42.14464    43.99186    -0.05157     0.57707     1.54842
  Hartree    93.73774    94.49706    95.47235     0.22719     0.24026     0.66519
  E(xc)     -27.09980   -27.10529   -27.10814     0.00106     0.00267     0.00695
  Local    -194.32036  -195.63127  -198.08735    -0.30157    -0.73857    -2.00856
  n-local   -15.63349   -15.66791   -15.71930     0.01599    -0.00049     0.00525
  augment     0.12208     0.12125     0.11757     0.00128    -0.00054    -0.00133
  Kinetic   100.24532   100.55375   100.70948    -0.05283    -0.12359    -0.33862
  Fock        0.00000     0.00000     0.00000     0.00000     0.00000     0.00000
  -------------------------------------------------------------------------------------
  Total      -1.14753    -0.85176    -0.38752    -0.16045    -0.04320    -0.12270
  in kB      -1.79117    -1.32951    -0.60488    -0.25045    -0.06743    -0.19152
  external pressure =       -1.24 kB  Pullay stress =        0.00 kB

  kinetic pressure (ideal gas correction) =      0.00 kB
  total pressure  =     -1.24 kB
  Total+kin.    -1.791      -1.330      -0.605      -0.250      -0.067      -0.192

 VOLUME and BASIS-vectors are now :
 -----------------------------------------------------------------------------
  energy-cutoff  :      400.00
  volume of cell :     1026.45
      direct lattice vectors                 reciprocal lattice vectors
    10.178576127  0.000000000  0.000000000     0.098245569 -0.001147300 -0.002017631
     0.117828112 10.089856050  0.000000000     0.000000000  0.099109442 -0.000710362
     0.206091734  0.071635820  9.994598765     0.000000000  0.000000000  0.100054042

  length of vectors
    10.178576127 10.090544017  9.996980042     0.098272982  0.099111987  0.100054042


 FORCES acting on ions
    electron-ion (+dipol)            ewald-force                    non-local-force                 convergence-correction
 -----------------------------------------------------------------------------------------------
   -.160E+02 0.292E+02 0.408E+02   0.177E+02 -.322E+02 -.450E+02   -.166E+01 0.305E+01 0.424E+01   -.433E-05 0.160E-04 0.279E-04
   0.514E+02 -.650E+01 0.300E+01   -.561E+02 0.710E+01 -.322E+01   0.520E+01 -.654E+00 0.321E+00   0.183E-04 -.387E-05 0.242E-05
   -.236E+02 -.462E+02 0.124E+01   0.258E+02 0.504E+02 -.139E+01   -.240E+01 -.467E+01 0.114E+00   -.838E-05 -.270E-04 -.186E-06
   -.129E+02 0.243E+02 -.449E+02   0.142E+02 -.269E+02 0.496E+02   -.137E+01 0.253E+01 -.469E+01   -.386E-05 0.112E-04 -.289E-04
   0.139E+01 -.129E+01 -.223E-01   -.158E+01 0.155E+01 -.626E-02   -.554E-02 0.205E+00 -.602E-01   0.195E-04 -.837E-05 -.426E-05
 -----------------------------------------------------------------------------------------------
   0.245E+00 -.465E+00 0.689E-01   0.000E+00 0.355E-14 -.347E-17   -.245E+00 0.465E+00 -.689E-01   0.212E-04 -.120E-04 -.297E-05
 
 
 POSITION                                       TOTAL-FORCE (eV/Angst)
 -----------------------------------------------------------------------------------
      5.60416      4.13616      3.60067         0.010318      0.050454      0.015899
      4.16591      4.88478      4.38597         0.553802     -0.050917      0.100765
      5.77814      5.73698      4.42449        -0.281587     -0.453001     -0.041365
      5.54017      4.23926      5.38589        -0.092255     -0.017147      0.013352
      5.26998      4.74556      4.45102        -0.190515      0.470247     -0.088694
 -----------------------------------------------------------------------------------
    total drift:                               -0.000237     -0.000363     -0.000044


--------------------------------------------------------------------------------------------------------



  FREE ENERGIE OF THE ION-ELECTRON SYSTEM (eV)
  ---------------------------------------------------
  free  energy   TOTEN  =       -24.01844036 eV

  energy  without entropy=      -24.01844036  energy(sigma->0) =      -24.01844036
 


--------------------------------------------------------------------------------------------------------


    POTLOK:  cpu time    0.1506: real time    0.1514


--------------------------------------------------------------------------------------------------------


 stress matrix after NEB project (eV)
     -1.14753     -0.16045     -0.12270
     -0.16045     -0.85176     -0.04320
     -0.12270     -0.04320     -0.38752
  FORCES: max atom, RMS     0.565193    0.420199
  FORCE total and by dimension    0.939595    0.553802
  Stress total and by dimension    1.509249    1.147531
           RANDOM_SEED =         581369956                0                0
           RANDOM_SEED =         581369956               30                0
   IONSTEP:  cpu time    0.0037: real time    0.0066

  ENERGY OF THE ELECTRON-ION-THERMOSTAT SYSTEM (eV)
  ---------------------------------------------------
% ion-electron   TOTEN  =       -24.018440  see above
  kinetic energy EKIN   =         0.000195
  kin. lattice  EKIN_LAT=         0.000000  (temperature    0.38 K)
  nose potential ES     =         0.000000
  nose kinetic   EPS    =         0.000000
  ---------------------------------------------------
  total energy   ETOTAL =       -24.018246 eV

  maximum distance moved by ions :      0.13E-03

    WAVPRE:  cpu time    0.0446: real time    0.0448
    FEWALD:  cpu time    0.0006: real time    0.0006
    ORTHCH:  cpu time    0.0090: real time    0.0090
     LOOP+:  cpu time    7.8654: real time    8.1044


--------------------------------------- Iteration      2(   1)  ---------------------------------------


    POTLOK:  cpu time    0.1525: real time    0.1529
    SETDIJ:  cpu time    0.0022: real time    0.0022
     EDDAV:  cpu time    0.1711: real time    0.1712
       DOS:  cpu time    0.0003: real time    0.0003
    CHARGE:  cpu time    0.0193: real time    0.0193
    MIXING:  cpu time    0.0071: real time    0.0071
    --------------------------------------------
      LOOP:  cpu time    0.3524: real time    0.3529

 eigenvalue-minimisations  :    72
 total energy-change (2. order) :-0.1500541E-02  (-0.1698462E-03)
 number of electron       8.0000000 magnetization 
 augmentation part        0.1830019 magnetization 

 Broyden mixing:
  rms(total) = 0.21116E-02    rms(broyden)= 0.21104E-02
  rms(prec ) = 0.26653E-02
  weight for this iteration     100.00

 Free energy of the ion-electron system (eV)
  ---------------------------------------------------
  alpha Z        PSCENC =         0.23600861
  Ewald energy   TEWEN  =       127.85661921
  -Hartree energ DENC   =      -283.79911864
  -exchange      EXHF   =         0.00000000
  -V(xc)+E(xc)   XCENC  =        24.64812537
  PAW double counting   =       454.37012742     -455.15018304
  entropy T*S    EENTRO =        -0.00000000
  eigenvalues    EBANDS =       -89.22327405
  atomic energy  EATOM  =       197.04175453
  Solvation  Ediel_sol  =         0.00000000
  ---------------------------------------------------
  free energy    TOTEN  =       -24.01994059 eV

  energy without entropy =      -24.01994059  energy(sigma->0) =      -24.01994059


--------------------------------------------------------------------------------------------------------




--------------------------------------- Iteration      2(   2)  ---------------------------------------


    POTLOK:  cpu time    0.1562: real time    0.1588
    SETDIJ:  cpu time    0.0021: real time    0.0021
    EDDIAG:  cpu time    0.0385: real time    0.0385
  RMM-DIIS:  cpu time    0.1669: real time    0.1671
    ORTHCH:  cpu time    0.0019: real time    0.0019
       DOS:  cpu time    0.0002: real time    0.0002
    CHARGE:  cpu time    0.0196: real time    0.0196
    MIXING:  cpu time    0.0047: real time    0.0047
    --------------------------------------------
      LOOP:  cpu time    0.3902: real time    0.3930

 eigenvalue-minimisations  :    64
 total energy-change (2. order) : 0.9058278E-05  (-0.3892333E-05)
 number of electron       8.0000000 magnetization 
 augmentation part        0.1829755 magnetization 

 Broyden mixing:
  rms(total) = 0.10266E-02    rms(broyden)= 0.10263E-02
  rms(prec ) = 0.12532E-02
  weight for this iteration     100.00

 eigenvalues of (default mixing * dielectric matrix)
  average eigenvalue GAMMA=   1.7184
  1.7184

 Free energy of the ion-electron system (eV)
  ---------------------------------------------------
  alpha Z        PSCENC =         0.23600861
  Ewald energy   TEWEN  =       127.85661921
  -Hartree energ DENC   =      -283.82990479
  -exchange      EXHF   =         0.00000000
  -V(xc)+E(xc)   XCENC  =        24.64978910
  PAW double counting   =       454.86154138     -455.64194662
  entropy T*S    EENTRO =        -0.00000000
  eigenvalues    EBANDS =       -89.19379295
  atomic energy  EATOM  =       197.04175453
  Solvation  Ediel_sol  =         0.00000000
  ---------------------------------------------------
  free energy    TOTEN  =       -24.01993153 eV

  energy without entropy =      -24.01993153  energy(sigma->0) =      -24.01993153


--------------------------------------------------------------------------------------------------------




--------------------------------------- Iteration      2(   3)  ---------------------------------------


    POTLOK:  cpu time    0.1546: real time    0.1548
    SETDIJ:  cpu time    0.0022: real time    0.0022
    EDDIAG:  cpu time    0.0385: real time    0.0385
  RMM-DIIS:  cpu time    0.1657: real time    0.1663
    ORTHCH:  cpu time    0.0019: real time    0.0019
       DOS:  cpu time    0.0002: real time    0.0002
    CHARGE:  cpu time    0.0199: real time    0.0200
    MIXING:  cpu time    0.0050: real time    0.0050
    --------------------------------------------
      LOOP:  cpu time    0.3880: real time    0.3888

 eigenvalue-minimisations  :    64
 total energy-change (2. order) : 0.5051235E-06  (-0.1976389E-05)
 number of electron       8.0000000 magnetization 
 augmentation part        0.1829408 magnetization 

 Broyden mixing:
  rms(total) = 0.36875E-03    rms(broyden)= 0.36842E-03
  rms(prec ) = 0.45366E-03
  weight for this iteration     100.00

 eigenvalues of (default mixing * dielectric matrix)
  average eigenvalue GAMMA=   1.3180
  0.9502  1.6859

 Free energy of the ion-electron system (eV)
  ---------------------------------------------------
  alpha Z        PSCENC =         0.23600861
  Ewald energy   TEWEN  =       127.85661921
  -Hartree energ DENC   =      -283.85048553
  -exchange      EXHF   =         0.00000000
  -V(xc)+E(xc)   XCENC  =        24.65092358
  PAW double counting   =       455.18735068     -455.96801632
  entropy T*S    EENTRO =        -0.00000000
  eigenvalues    EBANDS =       -89.17408578
  atomic energy  EATOM  =       197.04175453
  Solvation  Ediel_sol  =         0.00000000
  ---------------------------------------------------
  free energy    TOTEN  =       -24.01993103 eV

  energy without entropy =      -24.01993103  energy(sigma->0) =      -24.01993103


--------------------------------------------------------------------------------------------------------




--------------------------------------- Iteration      2(   4)  ---------------------------------------


    POTLOK:  cpu time    0.1547: real time    0.1550
    SETDIJ:  cpu time    0.0019: real time    0.0025
    EDDIAG:  cpu time    0.0379: real time    0.0386
  RMM-DIIS:  cpu time    0.1330: real time    0.1353
    ORTHCH:  cpu time    0.0022: real time    0.0022
       DOS:  cpu time    0.0002: real time    0.0002
    --------------------------------------------
      LOOP:  cpu time    0.3298: real time    0.3338

 eigenvalue-minimisations  :    48
 total energy-change (2. order) : 0.2300394E-06  (-0.4197102E-07)
 number of electron       8.0000000 magnetization 
 augmentation part        0.1829408 magnetization 

 Free energy of the ion-electron system (eV)
  ---------------------------------------------------
  alpha Z        PSCENC =         0.23600861
  Ewald energy   TEWEN  =       127.85661921
  -Hartree energ DENC   =      -283.84606627
  -exchange      EXHF   =         0.00000000
  -V(xc)+E(xc)   XCENC  =        24.65074349
  PAW double counting   =       455.20244833     -455.98305557
  entropy T*S    EENTRO =        -0.00000000
  eigenvalues    EBANDS =       -89.17838313
  atomic energy  EATOM  =       197.04175453
  Solvation  Ediel_sol  =         0.00000000
  ---------------------------------------------------
  free energy    TOTEN  =       -24.01993080 eV

  energy without entropy =      -24.01993080  energy(sigma->0) =      -24.01993080


--------------------------------------------------------------------------------------------------------




 average (electrostatic) potential at core
  the test charge radii are     0.5201  0.6991
  (the norm of the test charge is              1.0000)
       1 -41.4931       2 -41.3922       3 -41.3841       4 -41.5064       5 -58.0151
 
 
 
 E-fermi :  -8.2109     XC(G=0):  -0.7002     alpha+bet : -0.2052


 k-point     1 :       0.2500    0.2500    0.2500
  band No.  band energies     occupation 
      1     -16.8215      2.00000
      2      -9.3207      2.00000
      3      -9.2500      2.00000
      4      -9.1968      2.00000
      5      -0.3361      0.00000
      6       0.5435      0.00000
      7       0.6580      0.00000
      8       0.6863      0.00000

 k-point     2 :      -0.2500    0.2500    0.2500
  band No.  band energies     occupation 
      1     -16.8215      2.00000
      2      -9.3208      2.00000
      3      -9.2501      2.00000
      4      -9.1968      2.00000
      5      -0.3304      0.00000
      6       0.5273      0.00000
      7       0.6404      0.00000
      8       0.6744      0.00000

 k-point     3 :       0.2500   -0.2500    0.2500
  band No.  band energies     occupation 
      1     -16.8215      2.00000
      2      -9.3207      2.00000
      3      -9.2501      2.00000
      4      -9.1968      2.00000
      5      -0.3328      0.00000
      6       0.5317      0.00000
      7       0.6502      0.00000
      8       0.6784      0.00000

 k-point     4 :      -0.2500   -0.2500    0.2500
  band No.  band energies     occupation 
      1     -16.8215      2.00000
      2      -9.3208      2.00000
      3      -9.2502      2.00000
      4      -9.1969      2.00000
      5      -0.3310      0.00000
      6       0.5330      0.00000
      7       0.6447      0.00000
      8       0.6723      0.00000


--------------------------------------------------------------------------------------------------------


 soft charge-density along one line, spin component           1
         0         1         2         3         4         5         6         7         8         9
 total charge-density along one line
 
 pseudopotential strength for first ion, spin component:           1
 -2.341  -4.034  -0.001  -0.001   0.001
 -4.034  -6.865  -0.003  -0.004   0.002
 -0.001  -0.003  -0.337   0.002  -0.001
 -0.001  -0.004   0.002  -0.336  -0.001
  0.001   0.002  -0.001  -0.001  -0.338
 total augmentation occupancy for first ion, spin component:           1
  3.542  -0.638   0.238   0.332  -0.131
 -0.638   0.129  -0.044  -0.062   0.024
  0.238  -0.044   0.022   0.019  -0.007
  0.332  -0.062   0.019   0.035  -0.010
 -0.131   0.024  -0.007  -0.010   0.013


------------------------ aborting loop because EDIFF is reached ----------------------------------------


    CHARGE:  cpu time    0.0195: real time    0.0198
    FORLOC:  cpu time    0.0142: real time    0.0143
    FORNL :  cpu time    0.0213: real time    0.0215
    STRESS:  cpu time    0.1590: real time    0.1607
    FORCOR:  cpu time    0.1486: real time    0.1520
    FORHAR:  cpu time    0.0465: real time    0.0488
    MIXING:  cpu time    0.0064: real time    0.0065
    OFIELD:  cpu time    0.0000: real time    0.0000

  FORCE on cell =-STRESS in cart. coord.  units (eV):
  Direction    XX          YY          ZZ          XY          YZ          ZX
  --------------------------------------------------------------------------------------
  Alpha Z     0.23601     0.23601     0.23601
  Ewald      41.64452    42.20904    44.00302    -0.03328     0.56739     1.52674
  Hartree    93.77024    94.54008    95.53010     0.22286     0.23735     0.65816
  E(xc)     -27.10782   -27.11313   -27.11574     0.00098     0.00261     0.00681
  Local    -194.40663  -195.72551  -198.17179    -0.30584    -0.72740    -1.98274
  n-local   -15.65226   -15.68453   -15.73193     0.01465    -0.00048     0.00508
  augment     0.12160     0.12090     0.11751     0.00118    -0.00053    -0.00132
  Kinetic   100.30015   100.59932   100.74291    -0.04886    -0.12097    -0.33192
  Fock        0.00000     0.00000     0.00000     0.00000     0.00000     0.00000
[...]
      5.76217      5.71300      4.42102         0.182279      0.381944     -0.028690
      5.53292      4.23801      5.38639        -0.037605     -0.006197     -0.010962
      5.26934      4.74759      4.45059         0.281453     -0.421714      0.046478
 -----------------------------------------------------------------------------------
    total drift:                                0.000154      0.000058      0.000155


--------------------------------------------------------------------------------------------------------



  FREE ENERGIE OF THE ION-ELECTRON SYSTEM (eV)
  ---------------------------------------------------
  free  energy   TOTEN  =       -24.02376058 eV

  energy  without entropy=      -24.02376058  energy(sigma->0) =      -24.02376058
 
 d Force =-0.2679727E-02[-0.321E-02,-0.215E-02]  d Energy =-0.2678080E-02-0.165E-05
 d Force =-0.4769302E+00[-0.478E+00,-0.476E+00]  d Ewald  =-0.4769279E+00-0.227E-05


--------------------------------------------------------------------------------------------------------


    POTLOK:  cpu time    0.1488: real time    0.1489


--------------------------------------------------------------------------------------------------------


 stress matrix after NEB project (eV)
      0.16236      0.12624     -0.02611
      0.12624     -0.00682     -0.01480
     -0.02611     -0.01480     -0.38693
  FORCES: max atom, RMS     0.509135    0.356645
  FORCE total and by dimension    0.797482    0.438402
  Stress total and by dimension    0.458037    0.386928
           RANDOM_SEED =         581369956               30                0
   IONSTEP:  cpu time    0.0002: real time    0.0002

  ENERGY OF THE ELECTRON-ION-THERMOSTAT SYSTEM (eV)
  ---------------------------------------------------
% ion-electron   TOTEN  =       -24.023761  see above
  kinetic energy EKIN   =         0.005412
  kin. lattice  EKIN_LAT=         0.000000  (temperature   10.47 K)
  nose potential ES     =         0.000000
  nose kinetic   EPS    =         0.000000
  ---------------------------------------------------
  total energy   ETOTAL =       -24.018348 eV

  maximum distance moved by ions :      0.30E-03

    WAVPRE:  cpu time    0.0502: real time    0.0505
    FEWALD:  cpu time    0.0008: real time    0.0008
    ORTHCH:  cpu time    0.0089: real time    0.0089
 Prediction of Wavefunctions ALPHA= 2.203 BETA=-1.242
     LOOP+:  cpu time    2.1521: real time    2.1555


--------------------------------------- Iteration     10(   1)  ---------------------------------------


    POTLOK:  cpu time    0.1455: real time    0.1456
    SETDIJ:  cpu time    0.0022: real time    0.0022
     EDDAV:  cpu time    0.1731: real time    0.1731
       DOS:  cpu time    0.0002: real time    0.0002
    CHARGE:  cpu time    0.0189: real time    0.0190
    MIXING:  cpu time    0.0056: real time    0.0055
    --------------------------------------------
      LOOP:  cpu time    0.3454: real time    0.3457

 eigenvalue-minimisations  :    72
 total energy-change (2. order) : 0.2531506E-02  (-0.1895002E-04)
 number of electron       8.0000001 magnetization 
 augmentation part        0.1874530 magnetization 

 Broyden mixing:
  rms(total) = 0.10805E-03    rms(broyden)= 0.10780E-03
  rms(prec ) = 0.12638E-03
  weight for this iteration     100.00

 Free energy of the ion-electron system (eV)
  ---------------------------------------------------
  alpha Z        PSCENC =         0.23600861
  Ewald energy   TEWEN  =       131.65740342
  -Hartree energ DENC   =      -287.18511748
  -exchange      EXHF   =         0.00000000
  -V(xc)+E(xc)   XCENC  =        24.82733108
  PAW double counting   =       478.14614807     -478.94009370
  entropy T*S    EENTRO =        -0.00000000
  eigenvalues    EBANDS =       -89.80466300
  atomic energy  EATOM  =       197.04175453
  Solvation  Ediel_sol  =         0.00000000
  ---------------------------------------------------
  free energy    TOTEN  =       -24.02122846 eV

  energy without entropy =      -24.02122846  energy(sigma->0) =      -24.02122846


--------------------------------------------------------------------------------------------------------




--------------------------------------- Iteration     10(   2)  ---------------------------------------


    POTLOK:  cpu time    0.1470: real time    0.1477
    SETDIJ:  cpu time    0.0022: real time    0.0022
    EDDIAG:  cpu time    0.0387: real time    0.0388
  RMM-DIIS:  cpu time    0.1658: real time    0.1658
    ORTHCH:  cpu time    0.0019: real time    0.0019
       DOS:  cpu time    0.0002: real time    0.0002
    CHARGE:  cpu time    0.0196: real time    0.0197
    MIXING:  cpu time    0.0049: real time    0.0049
    --------------------------------------------
      LOOP:  cpu time    0.3803: real time    0.3811

 eigenvalue-minimisations  :    59
 total energy-change (2. order) :-0.8482555E-06  (-0.3108980E-06)
 number of electron       8.0000001 magnetization 
 augmentation part        0.1874556 magnetization 

 Broyden mixing:
  rms(total) = 0.64666E-04    rms(broyden)= 0.64391E-04
  rms(prec ) = 0.80938E-04
  weight for this iteration     100.00

 eigenvalues of (default mixing * dielectric matrix)
  average eigenvalue GAMMA=   0.6630
  0.6630

 Free energy of the ion-electron system (eV)
  ---------------------------------------------------
  alpha Z        PSCENC =         0.23600861
  Ewald energy   TEWEN  =       131.65740342
  -Hartree energ DENC   =      -287.18564416
  -exchange      EXHF   =         0.00000000
  -V(xc)+E(xc)   XCENC  =        24.82734510
  PAW double counting   =       478.16347691     -478.95741705
  entropy T*S    EENTRO =        -0.00000000
  eigenvalues    EBANDS =       -89.80415667
  atomic energy  EATOM  =       197.04175453
  Solvation  Ediel_sol  =         0.00000000
  ---------------------------------------------------
  free energy    TOTEN  =       -24.02122931 eV

  energy without entropy =      -24.02122931  energy(sigma->0) =      -24.02122931


--------------------------------------------------------------------------------------------------------




--------------------------------------- Iteration     10(   3)  ---------------------------------------


    POTLOK:  cpu time    0.1455: real time    0.1456
    SETDIJ:  cpu time    0.0022: real time    0.0022
    EDDIAG:  cpu time    0.0381: real time    0.0381
  RMM-DIIS:  cpu time    0.1330: real time    0.1331
    ORTHCH:  cpu time    0.0018: real time    0.0018
       DOS:  cpu time    0.0002: real time    0.0002
    CHARGE:  cpu time    0.0195: real time    0.0195
    MIXING:  cpu time    0.0051: real time    0.0051
    --------------------------------------------
      LOOP:  cpu time    0.3452: real time    0.3455

 eigenvalue-minimisations  :    44
 total energy-change (2. order) :-0.3155728E-06  (-0.1020274E-07)
 number of electron       8.0000001 magnetization 
 augmentation part        0.1874557 magnetization 

 Broyden mixing:
  rms(total) = 0.56051E-04    rms(broyden)= 0.56032E-04
  rms(prec ) = 0.70716E-04
  weight for this iteration     100.00

 eigenvalues of (default mixing * dielectric matrix)
  average eigenvalue GAMMA=   1.3711
  1.3711  1.3711

 Free energy of the ion-electron system (eV)
  ---------------------------------------------------
  alpha Z        PSCENC =         0.23600861
  Ewald energy   TEWEN  =       131.65740342
  -Hartree energ DENC   =      -287.18583556
  -exchange      EXHF   =         0.00000000
  -V(xc)+E(xc)   XCENC  =        24.82735964
  PAW double counting   =       478.15717051     -478.95111020
  entropy T*S    EENTRO =        -0.00000000
  eigenvalues    EBANDS =       -89.80398056
  atomic energy  EATOM  =       197.04175453
  Solvation  Ediel_sol  =         0.00000000
  ---------------------------------------------------
  free energy    TOTEN  =       -24.02122962 eV

  energy without entropy =      -24.02122962  energy(sigma->0) =      -24.02122962


--------------------------------------------------------------------------------------------------------




--------------------------------------- Iteration     10(   4)  ---------------------------------------


    POTLOK:  cpu time    0.1453: real time    0.1455
    SETDIJ:  cpu time    0.0021: real time    0.0021
    EDDIAG:  cpu time    0.0381: real time    0.0381
  RMM-DIIS:  cpu time    0.1334: real time    0.1335
    ORTHCH:  cpu time    0.0016: real time    0.0016
       DOS:  cpu time    0.0002: real time    0.0002
    --------------------------------------------
      LOOP:  cpu time    0.3206: real time    0.3209

 eigenvalue-minimisations  :    38
 total energy-change (2. order) :-0.8277496E-06  (-0.2388805E-08)
 number of electron       8.0000001 magnetization 
 augmentation part        0.1874557 magnetization 

 Free energy of the ion-electron system (eV)
  ---------------------------------------------------
  alpha Z        PSCENC =         0.23600861
  Ewald energy   TEWEN  =       131.65740342
  -Hartree energ DENC   =      -287.18601011
  -exchange      EXHF   =         0.00000000
  -V(xc)+E(xc)   XCENC  =        24.82738166
  PAW double counting   =       478.13263220     -478.92656923
  entropy T*S    EENTRO =        -0.00000000
  eigenvalues    EBANDS =       -89.80383153
  atomic energy  EATOM  =       197.04175453
  Solvation  Ediel_sol  =         0.00000000
  ---------------------------------------------------
  free energy    TOTEN  =       -24.02123045 eV

  energy without entropy =      -24.02123045  energy(sigma->0) =      -24.02123045


--------------------------------------------------------------------------------------------------------




 average (electrostatic) potential at core
  the test charge radii are     0.5201  0.6991
  (the norm of the test charge is              1.0000)
       1 -41.4831       2 -41.6162       3 -41.6054       4 -41.4764       5 -57.9168
 
 
 
 E-fermi :  -8.3377     XC(G=0):  -0.6733     alpha+bet : -0.2052


 k-point     1 :       0.2500    0.2500    0.2500
  band No.  band energies     occupation 
      1     -16.9444      2.00000
      2      -9.3711      2.00000
      3      -9.3161      2.00000
      4      -9.2700      2.00000
      5      -0.3092      0.00000
      6       0.5739      0.00000
      7       0.6755      0.00000
      8       0.7018      0.00000

 k-point     2 :      -0.2500    0.2500    0.2500
  band No.  band energies     occupation 
      1     -16.9445      2.00000
      2      -9.3713      2.00000
      3      -9.3161      2.00000
      4      -9.2700      2.00000
      5      -0.3031      0.00000
      6       0.5528      0.00000
      7       0.6614      0.00000
      8       0.6901      0.00000

 k-point     3 :       0.2500   -0.2500    0.2500
  band No.  band energies     occupation 
      1     -16.9445      2.00000
      2      -9.3712      2.00000
      3      -9.3162      2.00000
      4      -9.2700      2.00000
      5      -0.3055      0.00000
      6       0.5584      0.00000
      7       0.6700      0.00000
      8       0.6945      0.00000

 k-point     4 :      -0.2500   -0.2500    0.2500
  band No.  band energies     occupation 
      1     -16.9445      2.00000
      2      -9.3713      2.00000
      3      -9.3163      2.00000
      4      -9.2700      2.00000
      5      -0.3039      0.00000
      6       0.5599      0.00000
      7       0.6635      0.00000
      8       0.6905      0.00000


--------------------------------------------------------------------------------------------------------


 soft charge-density along one line, spin component           1
         0         1         2         3         4         5         6         7         8         9
 total charge-density along one line
 
 pseudopotential strength for first ion, spin component:           1
 -2.341  -4.033  -0.001  -0.001   0.001
 -4.033  -6.864  -0.003  -0.004   0.002
 -0.001  -0.003  -0.337   0.002  -0.001
 -0.001  -0.004   0.002  -0.336  -0.001
  0.001   0.002  -0.001  -0.001  -0.338
 total augmentation occupancy for first ion, spin component:           1
  3.547  -0.638   0.238   0.333  -0.132
 -0.638   0.129  -0.044  -0.062   0.024
  0.238  -0.044   0.022   0.019  -0.007
  0.333  -0.062   0.019   0.035  -0.010
 -0.132   0.024  -0.007  -0.010   0.013


------------------------ aborting loop because EDIFF is reached ----------------------------------------


    CHARGE:  cpu time    0.0242: real time    0.0243
    FORLOC:  cpu time    0.0144: real time    0.0144
    FORNL :  cpu time    0.0212: real time    0.0212
    STRESS:  cpu time    0.1599: real time    0.1613
    FORCOR:  cpu time    0.1527: real time    0.1528
    FORHAR:  cpu time    0.0481: real time    0.0481
    MIXING:  cpu time    0.0052: real time    0.0052
    OFIELD:  cpu time    0.0001: real time    0.0001

  FORCE on cell =-STRESS in cart. coord.  units (eV):
  Direction    XX          YY          ZZ          XY          YZ          ZX
  --------------------------------------------------------------------------------------
  Alpha Z     0.23601     0.23601     0.23601
  Ewald      43.42479    43.83221    44.40036     0.38114     0.18142     0.64301
  Hartree    94.57715    95.63888    96.96987     0.12034     0.12837     0.39298
  E(xc)     -27.30399   -27.30426   -27.30150    -0.00097     0.00046     0.00151
  Local    -196.36389  -198.09035  -200.35127    -0.38369    -0.29899    -0.97146
  n-local   -16.11971   -16.09866   -16.05212    -0.01640    -0.00021    -0.00044
  augment     0.10875     0.11156     0.11549    -0.00134    -0.00007    -0.00051
  Kinetic   101.73036   101.75094   101.60465     0.05273    -0.02034    -0.07520
  Fock        0.00000     0.00000     0.00000     0.00000     0.00000     0.00000
  -------------------------------------------------------------------------------------
  Total       0.28945     0.07632    -0.37851     0.15181    -0.00937    -0.01010
  in kB       0.45181     0.11913    -0.59082     0.23695    -0.01462    -0.01576
  external pressure =       -0.01 kB  Pullay stress =        0.00 kB

  kinetic pressure (ideal gas correction) =      0.00 kB
  total pressure  =     -0.00 kB
  Total+kin.     0.460       0.122      -0.589       0.239      -0.014      -0.013

 VOLUME and BASIS-vectors are now :
 -----------------------------------------------------------------------------
  energy-cutoff  :      400.00
  volume of cell :     1026.45
      direct lattice vectors                 reciprocal lattice vectors
    10.178576127  0.000000000  0.000000000     0.098245569 -0.001147300 -0.002017631
     0.117828112 10.089856050  0.000000000     0.000000000  0.099109442 -0.000710362
     0.206091734  0.071635820  9.994598765     0.000000000  0.000000000  0.100054042

  length of vectors
    10.178576127 10.090544017  9.996980042     0.098272982  0.099111987  0.100054042


 FORCES acting on ions
    electron-ion (+dipol)            ewald-force                    non-local-force                 convergence-correction
 -----------------------------------------------------------------------------------------------
   -.162E+02 0.294E+02 0.410E+02   0.179E+02 -.324E+02 -.453E+02   -.168E+01 0.304E+01 0.425E+01   0.358E-04 -.353E-04 -.153E-04
   0.532E+02 -.669E+01 0.278E+01   -.594E+02 0.746E+01 -.309E+01   0.568E+01 -.713E+00 0.302E+00   0.487E-05 -.223E-04 0.612E-05
   -.244E+02 -.478E+02 0.150E+01   0.272E+02 0.534E+02 -.169E+01   -.260E+01 -.509E+01 0.158E+00   0.290E-04 -.654E-05 -.322E-05
   -.126E+02 0.246E+02 -.451E+02   0.139E+02 -.272E+02 0.498E+02   -.131E+01 0.254E+01 -.467E+01   0.292E-04 -.351E-04 0.165E-04
   -.266E+00 0.940E+00 -.213E+00   0.401E+00 -.120E+01 0.253E+00   0.184E+00 -.240E+00 0.191E-01   0.108E-03 -.115E-03 0.112E-04
 -----------------------------------------------------------------------------------------------
   -.271E+00 0.456E+00 -.598E-01   0.355E-14 -.355E-14 0.142E-13   0.271E+00 -.456E+00 0.599E-01   0.207E-03 -.215E-03 0.153E-04
 
 
 POSITION                                       TOTAL-FORCE (eV/Angst)
 -----------------------------------------------------------------------------------
      5.60541      4.14017      3.60189         0.011669     -0.016154     -0.017796
      4.19847      4.88209      4.39436        -0.535779      0.061604     -0.009499
      5.76040      5.71102      4.42021         0.229507      0.463205     -0.023653
      5.53135      4.23775      5.38639        -0.024531     -0.005979     -0.008037
      5.26937      4.74774      4.45053         0.319163     -0.502379      0.059132
 -----------------------------------------------------------------------------------
    total drift:                                0.000030      0.000298      0.000146


--------------------------------------------------------------------------------------------------------



  FREE ENERGIE OF THE ION-ELECTRON SYSTEM (eV)
  ---------------------------------------------------
  free  energy   TOTEN  =       -24.02123045 eV

  energy  without entropy=      -24.02123045  energy(sigma->0) =      -24.02123045
 
 d Force =-0.2531444E-02[-0.282E-02,-0.225E-02]  d Energy =-0.2530129E-02-0.131E-05
 d Force =-0.3544736E+00[-0.355E+00,-0.354E+00]  d Ewald  =-0.3544729E+00-0.692E-06


--------------------------------------------------------------------------------------------------------


    POTLOK:  cpu time    0.1494: real time    0.1495


--------------------------------------------------------------------------------------------------------


 stress matrix after NEB project (eV)
      0.28945      0.15181     -0.01010
      0.15181      0.07632     -0.00937
     -0.01010     -0.00937     -0.37851
  FORCES: max atom, RMS     0.598119    0.428462
  FORCE total and by dimension    0.958070    0.535779
  Stress total and by dimension    0.528536    0.378512
           RANDOM_SEED =         581369956               30                0
   IONSTEP:  cpu time    0.0003: real time    0.0010

  ENERGY OF THE ELECTRON-ION-THERMOSTAT SYSTEM (eV)
  ---------------------------------------------------
% ion-electron   TOTEN  =       -24.021230  see above
  kinetic energy EKIN   =         0.002939
  kin. lattice  EKIN_LAT=         0.000000  (temperature    5.68 K)
  nose potential ES     =         0.000000
  nose kinetic   EPS    =         0.000000
  ---------------------------------------------------
  total energy   ETOTAL =       -24.018292 eV

  maximum distance moved by ions :      0.19E-03


 mean value of Nose-termostat <S>:     1.000 mean value of <T> :    11.392
 mean temperature <T/S>/<1/S>  :    11.392

    WAVPRE:  cpu time    0.0538: real time    0.0615
    FEWALD:  cpu time    0.0010: real time    0.0010
    ORTHCH:  cpu time    0.0089: real time    0.0089
 Prediction of Wavefunctions ALPHA= 2.122 BETA=-1.150
    POTLOK:  cpu time    0.1545: real time    0.1546
    EDDIAG:  cpu time    0.0388: real time    0.0388
     LOOP+:  cpu time    2.2289: real time    2.2412
    4ORBIT:  cpu time    0.0000: real time    0.0008

 total amount of memory used by VASP MPI-rank0    56674. kBytes
=======================================================================

   base      :      30000. kBytes
   nonl-proj :       2765. kBytes
   fftplans  :       8576. kBytes
   grid      :      13527. kBytes
   one-center:          6. kBytes
   wavefun   :       1800. kBytes
 
  
  
 General timing and accounting informations for this job:
 ========================================================
  
                  Total CPU time used (sec):       30.283
                            User time (sec):       27.924
                          System time (sec):        2.359
                         Elapsed time (sec):       31.426
  
                   Maximum memory used (kb):      176408.
                   Average memory used (kb):           0.
  
                          Minor page faults:       257186
                          Major page faults:          122
                 Voluntary context switches:          557
