unknown system                          
           1
    10.178576    0.000000    0.000000
     0.117828   10.089856    0.000000
     0.206092    0.071636    9.994599
   H    C 
   4   1
Direct configuration=     1
   0.53857411  0.40737428  0.36026202
   0.39482841  0.48101176  0.43883360
   0.55216746  0.56544568  0.44268789
   0.52856700  0.41632431  0.53887987
   0.50332661  0.46716806  0.44534249
Direct configuration=     2
   0.53857649  0.40738585  0.36026689
   0.39495935  0.48099870  0.43885763
   0.55210215  0.56533705  0.44267781
   0.52854496  0.41632006  0.53888327
   0.50332278  0.46717758  0.44534064
Direct configuration=     3
   0.53858124  0.40740887  0.36027527
   0.39521136  0.48097436  0.43890510
   0.55197607  0.56512860  0.44265779
   0.52850145  0.41631177  0.53888961
   0.50331552  0.46719574  0.44533713
Direct configuration=     4
   0.53858836  0.40744256  0.36028700
   0.39556572  0.48094076  0.43897433
   0.55179769  0.56483629  0.44262795
   0.52843714  0.41629987  0.53889781
   0.50330563  0.46722106  0.44533219
Direct configuration=     5
   0.53859797  0.40748563  0.36030161
   0.39599549  0.48090080  0.43906285
   0.55157930  0.56448307  0.44258845
   0.52835308  0.41628477  0.53890676
   0.50329423  0.46725146  0.44532615
Direct configuration=     6
   0.53861030  0.40753631  0.36031828
   0.39646693  0.48085808  0.43916756
   0.55133625  0.56409765  0.44253954
   0.52825078  0.41626685  0.53891540
   0.50328271  0.46728438  0.44531939
Direct configuration=     7
   0.53862552  0.40759250  0.36033599
   0.39694214  0.48081661  0.43928488
   0.55108584  0.56371225  0.44248158
   0.52813209  0.41624649  0.53892272
   0.50327260  0.46731694  0.44531237
Direct configuration=     8
   0.53864371  0.40765208  0.36035375
   0.39738217  0.48078049  0.43941097
   0.55084589  0.56335990  0.44241508
   0.52799918  0.41622418  0.53892773
   0.50326550  0.46734618  0.44530551
Direct configuration=     9
   0.53866493  0.40771265  0.36037027
   0.39774985  0.48075359  0.43954191
   0.55063348  0.56307210  0.44234071
   0.52785458  0.41620023  0.53892999
   0.50326284  0.46736933  0.44529924
Direct configuration=    10
   0.53868916  0.40777177  0.36038408
   0.39801347  0.48073915  0.43967396
   0.55046335  0.56287565  0.44225942
   0.52770114  0.41617481  0.53892960
   0.50326582  0.46738408  0.44529389
