    5    5   10    1
  0.2136089E+03  0.1020243E-08  0.1018991E-08  0.1027559E-08  0.5000000E-15
  1.000000000000000E-004
  CAR 
 unknown system                          
      8      4      8
 
  0.2500000E+00  0.2500000E+00  0.2500000E+00  0.2500000E+00
    1      -17.061940   1.000000
    2       -9.422550   1.000000
    3       -9.373990   1.000000
    4       -9.347152   1.000000
    5       -0.290236   0.000000
    6        0.537400   0.000000
    7        0.656716   0.000000
    8        0.661368   0.000000
 
 -0.2500000E+00  0.2500000E+00  0.2500000E+00  0.2500000E+00
    1      -17.061954   1.000000
    2       -9.422591   1.000000
    3       -9.373904   1.000000
    4       -9.347122   1.000000
    5       -0.293501   0.000000
    6        0.545669   0.000000
    7        0.657698   0.000000
    8        0.669382   0.000000
 
  0.2500000E+00 -0.2500000E+00  0.2500000E+00  0.2500000E+00
    1      -17.061956   1.000000
    2       -9.422584   1.000000
    3       -9.373989   1.000000
    4       -9.347071   1.000000
    5       -0.292649   0.000000
    6        0.541777   0.000000
    7        0.655665   0.000000
    8        0.670872   0.000000
 
 -0.2500000E+00 -0.2500000E+00  0.2500000E+00  0.2500000E+00
    1      -17.061962   1.000000
    2       -9.422574   1.000000
    3       -9.373996   1.000000
    4       -9.347134   1.000000
    5       -0.295797   0.000000
    6        0.555613   0.000000
    7        0.663949   0.000000
    8        0.671546   0.000000
