7.320000000000000118e-04 -7.979999999999999897e-04 -7.770000000000000214e-04 9.150000000000000147e-04 -4.640000000000000027e-04 -1.179999999999999951e-04 1.160000000000000007e-04 -7.110000000000000434e-04 -8.600000000000000331e-05 6.629999999999999609e-04 -6.909999999999999910e-04 4.400000000000000157e-04 -2.882000000000000013e-03 2.266999999999999918e-03 5.400000000000000069e-04
7.349999999999999763e-04 -8.099999999999999561e-04 -7.969999999999999654e-04 6.859999999999999779e-04 -4.360000000000000269e-04 -1.289999999999999914e-04 1.949999999999999965e-04 -5.379999999999999583e-04 -8.899999999999999491e-05 6.710000000000000469e-04 -7.179999999999999967e-04 4.970000000000000459e-04 -2.746000000000000177e-03 2.105000000000000100e-03 5.169999999999999899e-04
6.009999999999999717e-04 -5.869999999999999567e-04 -4.910000000000000085e-04 7.089999999999999948e-04 -4.360000000000000269e-04 -1.230000000000000082e-04 1.430000000000000064e-04 -6.239999999999999887e-04 -8.399999999999999535e-05 5.869999999999999567e-04 -5.619999999999999996e-04 2.220000000000000022e-04 -2.494000000000000123e-03 1.809999999999999977e-03 4.749999999999999990e-04
4.629999999999999784e-04 -3.620000000000000171e-04 -1.859999999999999945e-04 5.829999999999999679e-04 -4.159999999999999744e-04 -1.240000000000000054e-04 1.359999999999999989e-04 -6.059999999999999849e-04 -8.000000000000000654e-05 5.029999999999999749e-04 -4.130000000000000099e-04 -2.799999999999999958e-05 -2.137000000000000011e-03 1.405999999999999915e-03 4.200000000000000174e-04
3.669999999999999760e-04 -2.190000000000000106e-04 1.999999999999999909e-06 2.039999999999999984e-04 -3.620000000000000171e-04 -1.379999999999999933e-04 2.280000000000000126e-04 -3.669999999999999760e-04 -8.200000000000000095e-05 4.499999999999999877e-04 -3.440000000000000132e-04 -1.289999999999999914e-04 -1.716999999999999993e-03 8.949999999999999623e-04 3.409999999999999945e-04
2.590000000000000071e-04 -5.700000000000000314e-05 2.100000000000000087e-04 -1.979999999999999881e-04 -3.069999999999999812e-04 -1.510000000000000112e-04 3.249999999999999851e-04 -1.150000000000000035e-04 -8.100000000000000375e-05 3.899999999999999929e-04 -2.610000000000000015e-04 -2.410000000000000033e-04 -1.239000000000000084e-03 3.449999999999999833e-04 2.590000000000000071e-04
1.019999999999999992e-04 1.869999999999999917e-04 5.259999999999999919e-04 -4.519999999999999821e-04 -2.629999999999999959e-04 -1.520000000000000084e-04 3.519999999999999908e-04 1.099999999999999971e-05 -7.499999999999999343e-05 2.910000000000000260e-04 -1.069999999999999988e-04 -4.730000000000000046e-04 -7.439999999999999782e-04 -2.220000000000000022e-04 1.740000000000000010e-04
-4.300000000000000165e-05 3.989999999999999949e-04 7.879999999999999635e-04 -7.119999999999999593e-04 -2.100000000000000087e-04 -1.520000000000000084e-04 3.699999999999999947e-04 1.559999999999999972e-04 -6.899999999999999667e-05 1.910000000000000077e-04 3.199999999999999855e-05 -6.620000000000000450e-04 -3.530000000000000152e-04 -6.700000000000000226e-04 9.000000000000000567e-05
-1.379999999999999933e-04 5.419999999999999471e-04 9.749999999999999552e-04 -9.290000000000000297e-04 -1.789999999999999870e-04 -1.479999999999999925e-04 4.070000000000000267e-04 2.730000000000000222e-04 -6.000000000000000152e-05 1.289999999999999914e-04 1.200000000000000030e-04 -7.799999999999999859e-04 2.110000000000000059e-04 -1.242999999999999964e-03 2.099999999999999884e-05
-2.719999999999999979e-04 6.790000000000000245e-04 1.072000000000000036e-03 -1.043000000000000090e-03 -1.069999999999999988e-04 -1.350000000000000017e-04 3.409999999999999945e-04 4.009999999999999893e-04 -5.300000000000000078e-05 6.000000000000000152e-06 2.320000000000000014e-04 -8.390000000000000105e-04 1.949999999999999965e-04 -1.348000000000000023e-03 -7.499999999999999343e-05
-1.254750000000000032e-01 2.479800000000000060e-01 3.207260000000000111e-01 6.576920000000000543e-01 -5.625200000000000339e-02 4.133900000000000075e-02 -2.794699999999999962e-01 -4.184579999999999966e-01 -9.518899999999999584e-02 -1.770160000000000067e-01 1.545749999999999902e-01 -4.674429999999999974e-01 -7.583900000000000363e-02 7.189900000000000457e-02 2.007460000000000078e-01
-1.155810000000000032e-01 2.300409999999999955e-01 2.963020000000000098e-01 6.094960000000000377e-01 -5.093799999999999717e-02 3.808500000000000080e-02 -2.611870000000000025e-01 -3.852539999999999853e-01 -9.411899999999999433e-02 -1.667690000000000006e-01 1.383169999999999955e-01 -4.336929999999999952e-01 -6.609700000000000297e-02 6.754100000000000381e-02 1.934710000000000041e-01
-9.771199999999999330e-02 1.975329999999999864e-01 2.520290000000000030e-01 5.193529999999999536e-01 -4.100700000000000178e-02 3.202300000000000285e-02 -2.275820000000000065e-01 -3.244020000000000237e-01 -9.193700000000000483e-02 -1.477870000000000017e-01 1.084640000000000049e-01 -3.712860000000000049e-01 -4.651099999999999679e-02 5.915600000000000025e-02 1.792340000000000044e-01
-7.240900000000000114e-02 1.514020000000000088e-01 1.891889999999999961e-01 3.902160000000000073e-01 -2.683599999999999874e-02 2.328500000000000014e-02 -1.796999999999999986e-01 -2.379690000000000139e-01 -8.865599999999999870e-02 -1.206269999999999981e-01 6.606599999999999973e-02 -2.823100000000000054e-01 -1.768199999999999980e-02 4.706500000000000267e-02 1.584639999999999938e-01
-4.037400000000000017e-02 9.280299999999999661e-02 1.093480000000000008e-01 2.262619999999999909e-01 -8.874999999999999209e-03 1.217000000000000026e-02 -1.189729999999999954e-01 -1.284420000000000006e-01 -8.429300000000000681e-02 -8.614600000000000035e-02 1.243400000000000061e-02 -1.693600000000000105e-01 1.883200000000000152e-02 3.197099999999999942e-02 1.322389999999999954e-01
-4.582000000000000135e-03 2.699700000000000016e-02 1.971799999999999942e-02 4.034200000000000286e-02 1.131000000000000061e-02 -5.890000000000000053e-04 -5.034700000000000286e-02 -5.406000000000000215e-03 -7.884299999999999642e-02 -4.696600000000000080e-02 -4.759800000000000142e-02 -4.193100000000000299e-02 6.135800000000000282e-02 1.458300000000000048e-02 1.017320000000000030e-01
3.198499999999999954e-02 -4.088300000000000267e-02 -7.266100000000000336e-02 -1.536279999999999868e-01 3.209300000000000347e-02 -1.409599999999999916e-02 2.101599999999999996e-02 1.214800000000000046e-01 -7.226299999999999391e-02 -5.939999999999999968e-03 -1.089979999999999977e-01 9.020599999999999452e-02 1.063780000000000003e-01 -3.749000000000000162e-03 6.891999999999999515e-02
6.682899999999999952e-02 -1.064719999999999972e-01 -1.617850000000000121e-01 -3.409989999999999966e-01 5.177299999999999958e-02 -2.739099999999999868e-02 9.036399999999999988e-02 2.431869999999999865e-01 -6.450100000000000278e-02 3.432799999999999740e-02 -1.670470000000000010e-01 2.178670000000000051e-01 1.493819999999999870e-01 -2.149399999999999922e-02 3.588999999999999829e-02
9.666800000000000392e-02 -1.639839999999999909e-01 -2.396939999999999904e-01 -5.039489999999999803e-01 6.823899999999999411e-02 -3.929599999999999760e-02 1.516560000000000130e-01 3.483020000000000005e-01 -5.547099999999999947e-02 7.051000000000000323e-02 -2.157020000000000048e-01 3.294110000000000094e-01 1.850600000000000023e-01 -3.685999999999999693e-02 5.165000000000000320e-03
1.187460000000000043e-01 -2.085700000000000054e-01 -2.996980000000000199e-01 -6.261020000000000474e-01 7.957500000000000684e-02 -4.870700000000000029e-02 1.997069999999999956e-01 4.269689999999999874e-01 -4.505900000000000183e-02 9.972699999999999620e-02 -2.497550000000000048e-01 4.147460000000000035e-01 2.079100000000000115e-01 -4.825200000000000322e-02 -2.112699999999999995e-02
2.741000000000000034e-02 -2.007379999999999998e-01 1.295860000000000067e-01 -9.426440000000000374e-01 2.668659999999999921e-01 -1.000790000000000013e-01 1.405740000000000045e-01 5.471979999999999622e-01 1.361239999999999950e-01 1.041279999999999983e-01 1.023440000000000044e-01 -3.657590000000000008e-01 6.700460000000000305e-01 -7.149870000000000392e-01 2.002430000000000043e-01
2.626600000000000115e-02 -1.959690000000000043e-01 1.262020000000000086e-01 -8.502979999999999983e-01 2.538819999999999966e-01 -9.305199999999999583e-02 1.187700000000000006e-01 5.032309999999999839e-01 1.342619999999999925e-01 1.051659999999999956e-01 9.141199999999999326e-02 -3.406350000000000211e-01 5.990100000000000424e-01 -6.512809999999999988e-01 1.731040000000000079e-01
2.534199999999999994e-02 -1.885120000000000129e-01 1.175800000000000040e-01 -6.801589999999999581e-01 2.291020000000000001e-01 -7.980900000000000494e-02 7.944900000000000573e-02 4.219370000000000065e-01 1.305999999999999939e-01 1.081949999999999995e-01 6.829799999999999760e-02 -2.888069999999999804e-01 4.672720000000000207e-01 -5.306290000000000173e-01 1.207440000000000041e-01
2.314400000000000138e-02 -1.763730000000000020e-01 1.069729999999999986e-01 -4.516839999999999744e-01 1.948670000000000124e-01 -6.170899999999999996e-02 2.552899999999999961e-02 3.093509999999999871e-01 1.248189999999999994e-01 1.116869999999999946e-01 3.688500000000000112e-02 -2.172590000000000077e-01 2.911409999999999831e-01 -3.643350000000000199e-01 4.710400000000000004e-02
2.004299999999999832e-02 -1.598499999999999921e-01 9.444400000000000017e-02 -1.904639999999999944e-01 1.536339999999999928e-01 -4.039199999999999735e-02 -3.686099999999999793e-02 1.758639999999999926e-01 1.169039999999999940e-01 1.150019999999999931e-01 -6.290000000000000018e-04 -1.304109999999999991e-01 9.221500000000000530e-02 -1.686840000000000006e-01 -4.047599999999999809e-02
1.637999999999999873e-02 -1.397660000000000013e-01 8.028399999999999426e-02 7.571400000000000352e-02 1.085840000000000000e-01 -1.778300000000000020e-02 -1.006510000000000044e-01 3.435400000000000259e-02 1.066830000000000001e-01 1.174769999999999981e-01 -4.127299999999999719e-02 -3.452399999999999913e-02 -1.092039999999999955e-01 3.844899999999999707e-02 -1.347140000000000004e-01
1.262500000000000080e-02 -1.171660000000000063e-01 6.460200000000000664e-02 3.236539999999999973e-01 6.256799999999999862e-02 4.467999999999999750e-03 -1.592560000000000087e-01 -1.030540000000000067e-01 9.424499999999999544e-02 1.182359999999999939e-01 -8.163499999999999923e-02 6.330199999999999716e-02 -2.955010000000000137e-01 2.392980000000000107e-01 -2.267039999999999889e-01
8.529000000000000123e-03 -9.177299999999999347e-02 4.900700000000000195e-02 5.370369999999999866e-01 1.795700000000000074e-02 2.511800000000000144e-02 -2.080720000000000069e-01 -2.274140000000000050e-01 7.967399999999999483e-02 1.156709999999999960e-01 -1.168890000000000068e-01 1.535289999999999988e-01 -4.534880000000000022e-01 4.179059999999999997e-01 -3.074489999999999723e-01
4.284999999999999747e-03 -6.418899999999999606e-02 3.422900000000000248e-02 7.035820000000000407e-01 -2.326900000000000149e-02 4.315399999999999792e-02 -2.429759999999999975e-01 -3.304630000000000067e-01 6.325999999999999679e-02 1.085760000000000058e-01 -1.429749999999999910e-01 2.277879999999999905e-01 -5.739790000000000170e-01 5.608300000000000507e-01 -3.686280000000000112e-01
1.000000000000000048e-04 -3.511600000000000138e-02 2.069899999999999865e-02 8.155780000000000252e-01 -5.959899999999999920e-02 5.784600000000000158e-02 -2.611829999999999985e-01 -4.062200000000000255e-01 4.535600000000000048e-02 9.588099999999999401e-02 -1.565580000000000027e-01 2.791109999999999980e-01 -6.508909999999999973e-01 6.572620000000000129e-01 -4.032009999999999761e-01
-2.080130000000000035e-01 -3.599499999999999922e-02 1.188759999999999956e-01 5.577330000000000343e-01 -9.506499999999999673e-02 -7.036900000000000099e-02 5.649000000000000375e-03 1.297889999999999877e-01 1.584099999999999953e-01 -3.116899999999999879e-02 2.609609999999999985e-01 -3.884310000000000263e-01 -3.245210000000000039e-01 -2.600199999999999734e-01 1.815499999999999892e-01
-2.008040000000000103e-01 -3.895400000000000251e-02 1.102629999999999999e-01 5.163569999999999549e-01 -8.934799999999999687e-02 -7.114499999999999991e-02 2.075000000000000022e-03 1.195050000000000001e-01 1.552050000000000096e-01 -2.465600000000000083e-02 2.437880000000000047e-01 -3.586989999999999901e-01 -2.931369999999999809e-01 -2.352470000000000117e-01 1.642949999999999966e-01
-1.875000000000000000e-01 -4.393500000000000183e-02 9.491399999999999837e-02 4.366970000000000018e-01 -7.842300000000000659e-02 -7.249400000000000288e-02 -5.753000000000000301e-03 9.802900000000000502e-02 1.490160000000000096e-01 -1.240600000000000036e-02 2.107839999999999991e-01 -3.017980000000000107e-01 -2.316960000000000131e-01 -1.870920000000000083e-01 1.305149999999999921e-01
-1.679970000000000074e-01 -5.134500000000000175e-02 7.237999999999999989e-02 3.224870000000000236e-01 -6.263100000000000611e-02 -7.433900000000000230e-02 -1.569299999999999862e-02 6.980500000000000593e-02 1.399019999999999986e-01 5.092000000000000172e-03 1.635129999999999917e-01 -2.203299999999999981e-01 -1.443939999999999946e-01 -1.196760000000000046e-01 8.253499999999999726e-02
-1.431280000000000052e-01 -6.034400000000000180e-02 4.424800000000000261e-02 1.799749999999999961e-01 -4.289099999999999857e-02 -7.632700000000000595e-02 -2.679300000000000084e-02 3.690700000000000230e-02 1.277840000000000087e-01 2.655899999999999928e-02 1.045750000000000013e-01 -1.191200000000000037e-01 -3.718099999999999877e-02 -3.877400000000000291e-02 2.348300000000000040e-02
-1.143699999999999994e-01 -6.974199999999999844e-02 1.290099999999999927e-02 1.999400000000000135e-02 -2.060800000000000132e-02 -7.790500000000000203e-02 -3.791699999999999932e-02 2.252000000000000095e-03 1.130720000000000058e-01 4.996699999999999753e-02 3.850900000000000156e-02 -6.171000000000000270e-03 8.215400000000000480e-02 4.935099999999999903e-02 -4.206100000000000116e-02
-8.344699999999999340e-02 -7.806599999999999651e-02 -1.877799999999999955e-02 -1.446999999999999953e-01 2.455000000000000151e-03 -7.828200000000000436e-02 -4.816700000000000148e-02 -3.189999999999999780e-02 9.608899999999999386e-02 7.286099999999999521e-02 -2.957299999999999859e-02 1.093039999999999984e-01 2.033379999999999910e-01 1.368649999999999867e-01 -1.084529999999999939e-01
-5.127400000000000013e-02 -8.482299999999999562e-02 -4.952600000000000058e-02 -3.013989999999999725e-01 2.465099999999999930e-02 -7.675600000000000478e-02 -5.565699999999999814e-02 -6.134799999999999975e-02 7.708600000000000174e-02 9.302100000000000646e-02 -9.483099999999999863e-02 2.185660000000000103e-01 3.151349999999999985e-01 2.160060000000000036e-01 -1.694330000000000003e-01
-1.952399999999999969e-02 -8.864900000000000557e-02 -7.669299999999999728e-02 -4.349029999999999840e-01 4.395199999999999801e-02 -7.237000000000000377e-02 -5.952400000000000052e-02 -8.382699999999999874e-02 5.653600000000000292e-02 1.077540000000000026e-01 -1.514989999999999948e-01 3.112030000000000074e-01 4.063019999999999965e-01 2.799249999999999794e-01 -2.188269999999999937e-01
1.046700000000000061e-02 -8.873499999999999444e-02 -9.841199999999999948e-02 -5.320479999999999654e-01 5.858399999999999719e-02 -6.426400000000000168e-02 -5.894300000000000234e-02 -9.725300000000000611e-02 3.492300000000000265e-02 1.147230000000000055e-01 -1.947760000000000047e-01 3.784390000000000254e-01 4.656609999999999916e-01 3.218219999999999970e-01 -2.506970000000000032e-01
-1.408989999999999965e-01 8.502400000000000235e-02 1.706370000000000109e-01 2.827000000000000086e-03 -7.770199999999999330e-02 -9.441199999999999593e-02 5.090449999999999697e-01 9.120540000000000314e-01 3.870300000000000129e-02 1.459409999999999874e-01 -1.211699999999999999e-01 2.547139999999999960e-01 -5.173029999999999573e-01 -7.975170000000000314e-01 -3.696980000000000266e-01
-1.323169999999999902e-01 7.635300000000000420e-02 1.564730000000000010e-01 1.451999999999999949e-03 -7.479700000000000237e-02 -9.208800000000000319e-02 4.644639999999999880e-01 8.202819999999999556e-01 4.055899999999999783e-02 1.395339999999999914e-01 -1.083790000000000031e-01 2.327760000000000107e-01 -4.731890000000000263e-01 -7.123739999999999517e-01 -3.376060000000000172e-01
-1.148539999999999978e-01 5.754299999999999693e-02 1.265650000000000108e-01 -3.980000000000000031e-03 -6.922300000000000675e-02 -8.790100000000000691e-02 3.819540000000000157e-01 6.509829999999999783e-01 4.358100000000000168e-02 1.275920000000000110e-01 -8.557700000000000029e-02 1.930699999999999916e-01 -3.912080000000000002e-01 -5.535240000000000160e-01 -2.754650000000000154e-01
-9.088200000000000445e-02 3.239800000000000318e-02 8.621600000000000097e-02 -9.377999999999999184e-03 -6.154099999999999848e-02 -8.172799999999999510e-02 2.714739999999999931e-01 4.252500000000000169e-01 4.720900000000000096e-02 1.104440000000000005e-01 -5.337399999999999783e-02 1.367379999999999984e-01 -2.821069999999999967e-01 -3.426210000000000089e-01 -1.883589999999999987e-01
-6.157800000000000079e-02 2.438000000000000063e-03 3.774099999999999677e-02 -1.508600000000000045e-02 -5.193400000000000100e-02 -7.365399999999999725e-02 1.452749999999999875e-01 1.692909999999999970e-01 5.032500000000000168e-02 8.935999999999999499e-02 -1.517300000000000072e-02 6.940499999999999448e-02 -1.583819999999999950e-01 -1.047059999999999935e-01 -8.390599999999999448e-02
-2.932799999999999990e-02 -2.965699999999999933e-02 -1.450500000000000053e-02 -2.021200000000000080e-02 -4.117300000000000126e-02 -6.395599999999999896e-02 1.619100000000000053e-02 -8.980799999999999894e-02 5.212200000000000166e-02 6.568000000000000227e-02 2.541900000000000062e-02 -3.073999999999999910e-03 -3.254399999999999654e-02 1.355000000000000093e-01 2.961300000000000043e-02
3.494999999999999843e-03 -6.118200000000000027e-02 -6.622300000000000408e-02 -2.444599999999999898e-02 -2.995599999999999999e-02 -5.306199999999999806e-02 -1.051959999999999978e-01 -3.299230000000000218e-01 5.191199999999999981e-02 4.093299999999999716e-02 6.461500000000000576e-02 -7.456500000000000627e-02 8.497200000000000586e-02 3.565670000000000228e-01 1.420210000000000083e-01
3.417800000000000005e-02 -8.853199999999999958e-02 -1.119890000000000052e-01 -2.631899999999999865e-02 -1.881499999999999839e-02 -4.109800000000000259e-02 -2.110640000000000016e-01 -5.348690000000000389e-01 4.946799999999999808e-02 1.639600000000000085e-02 9.945400000000000074e-02 -1.399330000000000018e-01 1.866639999999999966e-01 5.430230000000000334e-01 2.438210000000000099e-01
6.022899999999999782e-02 -1.088269999999999932e-01 -1.473109999999999975e-01 -2.550900000000000042e-02 -8.378999999999999296e-03 -2.849300000000000097e-02 -2.957520000000000149e-01 -6.932989999999999986e-01 4.465600000000000125e-02 -6.623000000000000415e-03 1.270399999999999863e-01 -1.943419999999999870e-01 2.675000000000000155e-01 6.837499999999999689e-01 3.256350000000000078e-01
7.976900000000000657e-02 -1.199019999999999947e-01 -1.687800000000000133e-01 -2.199900000000000119e-02 9.560000000000000355e-04 -1.556500000000000071e-02 -3.555159999999999987e-01 -7.979629999999999779e-01 3.758999999999999841e-02 -2.694600000000000120e-02 1.450780000000000125e-01 -2.336729999999999918e-01 3.245540000000000092e-01 7.722350000000000048e-01 3.805620000000000114e-01
2.002190000000000081e-01 -4.734369999999999967e-01 -2.597550000000000137e-01 -1.108640000000000042e-01 1.665669999999999928e-01 2.310200000000000101e-02 -2.774179999999999979e-01 -1.397269999999999901e-01 9.958400000000000585e-02 -8.013800000000000090e-02 2.429439999999999933e-01 -7.428219999999999823e-01 2.679869999999999752e-01 2.042970000000000064e-01 8.795990000000000197e-01
1.838370000000000004e-01 -4.443790000000000240e-01 -2.252339999999999898e-01 -1.002289999999999986e-01 1.617069999999999896e-01 2.185899999999999996e-02 -2.644230000000000191e-01 -1.228699999999999931e-01 9.607799999999999674e-02 -7.000000000000000666e-02 2.182379999999999876e-01 -6.931730000000000391e-01 2.504810000000000092e-01 1.876950000000000007e-01 7.995090000000000252e-01
1.526289999999999869e-01 -3.884420000000000095e-01 -1.588610000000000022e-01 -7.810100000000000375e-02 1.521460000000000035e-01 2.017000000000000043e-02 -2.400239999999999874e-01 -9.184699999999999809e-02 8.988200000000000356e-02 -5.029999999999999749e-02 1.706969999999999876e-01 -5.967940000000000467e-01 2.159200000000000008e-01 1.579669999999999963e-01 6.460939999999999461e-01
1.103289999999999965e-01 -3.120589999999999753e-01 -7.064800000000000246e-02 -4.878799999999999804e-02 1.386290000000000022e-01 1.748100000000000001e-02 -2.048149999999999971e-01 -4.730899999999999689e-02 8.070199999999999596e-02 -2.177899999999999975e-02 1.013740000000000058e-01 -4.567919999999999758e-01 1.649009999999999920e-01 1.198449999999999932e-01 4.287449999999999872e-01
6.057400000000000284e-02 -2.207959999999999923e-01 3.139399999999999830e-02 -1.274499999999999938e-02 1.211980000000000002e-01 1.446300000000000016e-02 -1.618700000000000139e-01 5.243000000000000264e-03 6.933000000000000274e-02 1.357099999999999973e-02 1.534699999999999953e-02 -2.824059999999999904e-01 1.004059999999999953e-01 7.948299999999999810e-02 1.672140000000000015e-01
8.613000000000000864e-03 -1.233090000000000019e-01 1.349200000000000121e-01 2.453999999999999931e-02 1.009049999999999947e-01 1.126399999999999971e-02 -1.129229999999999956e-01 6.335499999999999465e-02 5.635600000000000331e-02 5.366699999999999943e-02 -8.263299999999999812e-02 -8.292599999999999971e-02 2.602700000000000152e-02 4.213499999999999884e-02 -1.199220000000000008e-01
-4.152200000000000335e-02 -2.635699999999999849e-02 2.307029999999999914e-01 6.052099999999999841e-02 7.841599999999999959e-02 8.210999999999999549e-03 -6.146999999999999686e-02 1.210370000000000057e-01 4.252999999999999836e-02 9.484700000000000075e-02 -1.841959999999999986e-01 1.262139999999999929e-01 -5.242499999999999938e-02 1.147699999999999936e-02 -4.078879999999999728e-01
-8.614800000000000235e-02 6.382100000000000273e-02 3.103989999999999805e-01 9.208500000000000019e-02 5.453600000000000114e-02 5.526999999999999795e-03 -1.085900000000000060e-02 1.726179999999999937e-01 2.861299999999999955e-02 1.328030000000000044e-01 -2.792649999999999855e-01 3.266669999999999852e-01 -1.278950000000000087e-01 -1.143300000000000045e-02 -6.715790000000000370e-01
-1.220799999999999941e-01 1.415180000000000049e-01 3.670550000000000201e-01 1.157340000000000035e-01 3.019499999999999962e-02 3.418000000000000031e-03 3.602500000000000147e-02 2.133589999999999931e-01 1.537299999999999951e-02 1.629579999999999917e-01 -3.571969999999999867e-01 4.993799999999999906e-01 -1.925820000000000032e-01 -2.757400000000000129e-02 -8.854090000000000016e-01
-1.472569999999999990e-01 2.028169999999999973e-01 3.964400000000000146e-01 1.294109999999999983e-01 6.130000000000000032e-03 1.988000000000000184e-03 7.634399999999999520e-02 2.385009999999999908e-01 3.432000000000000155e-03 1.807269999999999988e-01 -4.073180000000000134e-01 6.255159999999999609e-01 -2.390899999999999970e-01 -3.982000000000000123e-02 -1.027463999999999933e+00
-8.949500000000000510e-02 2.270939999999999903e-01 1.275390000000000135e-01 6.664579999999999949e-01 1.415399999999999991e-02 -1.829300000000000023e-02 -5.168749999999999734e-01 -9.117469999999999741e-01 -9.452000000000000332e-03 1.197440000000000032e-01 -1.382470000000000088e-01 4.015329999999999733e-01 -1.800930000000000031e-01 8.086069999999999647e-01 -5.014420000000000543e-01
-8.292800000000000171e-02 2.136059999999999903e-01 1.150079999999999991e-01 6.184809999999999475e-01 1.723099999999999979e-02 -1.965899999999999939e-02 -4.830430000000000001e-01 -8.485380000000000145e-01 -1.013900000000000044e-02 1.107090000000000019e-01 -1.216809999999999975e-01 3.663429999999999742e-01 -1.633870000000000045e-01 7.386540000000000328e-01 -4.514610000000000012e-01
-7.110299999999999954e-02 1.892510000000000026e-01 9.252499999999999614e-02 5.266999999999999460e-01 2.333000000000000004e-02 -2.235499999999999987e-02 -4.171469999999999900e-01 -7.249330000000000496e-01 -1.164300000000000057e-02 9.272099999999999786e-02 -8.841300000000000547e-02 2.963720000000000243e-01 -1.315159999999999940e-01 6.009039999999999937e-01 -3.552549999999999875e-01
-5.397400000000000114e-02 1.539800000000000058e-01 5.979199999999999793e-02 3.939400000000000124e-01 3.202800000000000091e-02 -2.616200000000000123e-02 -3.205819999999999781e-01 -5.441230000000000233e-01 -1.370399999999999917e-02 6.864399999999999669e-02 -4.456299999999999845e-02 2.033040000000000125e-01 -8.829700000000000049e-02 4.026819999999999844e-01 -2.230260000000000020e-01
-3.290099999999999969e-02 1.102989999999999943e-01 1.971699999999999842e-02 2.277339999999999920e-01 4.263299999999999729e-02 -3.086699999999999861e-02 -1.969539999999999902e-01 -3.128170000000000117e-01 -1.631000000000000158e-02 4.036499999999999810e-02 5.928000000000000110e-03 9.477800000000000114e-02 -3.855200000000000293e-02 1.542389999999999872e-01 -6.726100000000000134e-02
-9.379000000000000184e-03 6.127599999999999714e-02 -2.480600000000000166e-02 3.932399999999999785e-02 5.428700000000000192e-02 -3.602099999999999747e-02 -5.326000000000000179e-02 -4.437699999999999978e-02 -1.923899999999999916e-02 1.057199999999999980e-02 5.787099999999999883e-02 -1.843399999999999900e-02 1.255500000000000019e-02 -1.289780000000000093e-01 9.873500000000000332e-02
1.498999999999999985e-02 1.013400000000000065e-02 -7.069499999999999396e-02 -1.580560000000000020e-01 6.599700000000000011e-02 -4.116999999999999826e-02 1.010550000000000059e-01 2.432910000000000073e-01 -2.229300000000000032e-02 -1.817699999999999871e-02 1.061430000000000012e-01 -1.260650000000000104e-01 6.012100000000000083e-02 -4.255220000000000113e-01 2.604219999999999868e-01
3.822400000000000103e-02 -3.919099999999999667e-02 -1.138300000000000006e-01 -3.474130000000000273e-01 7.639799999999999369e-02 -4.557800000000000046e-02 2.525720000000000187e-01 5.249439999999999662e-01 -2.510799999999999838e-02 -4.379600000000000160e-02 1.467890000000000028e-01 -2.199669999999999959e-01 1.004649999999999987e-01 -7.088299999999999601e-01 4.047390000000000154e-01
5.876800000000000079e-02 -8.351600000000000690e-02 -1.511750000000000038e-01 -5.114579999999999682e-01 8.414900000000000158e-02 -4.858900000000000025e-02 3.857780000000000098e-01 7.713780000000000081e-01 -2.729900000000000035e-02 -6.432799999999999629e-02 1.760519999999999863e-01 -2.924990000000000090e-01 1.313850000000000018e-01 -9.480119999999999658e-01 5.196979999999999933e-01
7.490199999999999636e-02 -1.194179999999999964e-01 -1.791129999999999944e-01 -6.329200000000000381e-01 8.782700000000000229e-02 -4.938399999999999734e-02 4.846039999999999792e-01 9.523300000000000098e-01 -2.837800000000000045e-02 -7.851700000000000346e-02 1.917030000000000123e-01 -3.388450000000000073e-01 1.520809999999999940e-01 -1.112589000000000050e+00 5.959229999999999805e-01
-1.263000000000000060e-02 -2.212189999999999990e-01 -4.158490000000000242e-01 5.046819999999999640e-01 -1.408760000000000012e-01 -9.393000000000000307e-03 1.335669999999999913e-01 2.507190000000000252e-01 1.210750000000000021e-01 5.986400000000000055e-02 -7.310400000000000231e-02 4.522200000000000109e-01 -6.858560000000000212e-01 1.840729999999999866e-01 -1.481270000000000087e-01
-2.173500000000000085e-02 -2.008979999999999932e-01 -3.839620000000000255e-01 4.651560000000000139e-01 -1.347279999999999867e-01 -1.090799999999999929e-02 1.237999999999999934e-01 2.286449999999999871e-01 1.192089999999999955e-01 5.252799999999999830e-02 -5.713800000000000129e-02 4.174149999999999805e-01 -6.195859999999999701e-01 1.635369999999999879e-01 -1.417470000000000119e-01
-3.861599999999999755e-02 -1.631879999999999997e-01 -3.247439999999999771e-01 3.860770000000000035e-01 -1.224159999999999970e-01 -1.398899999999999970e-02 1.053299999999999931e-01 1.880290000000000017e-01 1.154550000000000021e-01 3.857800000000000118e-02 -2.771099999999999952e-02 3.526150000000000118e-01 -4.926209999999999756e-01 1.251349999999999962e-01 -1.294299999999999895e-01
-6.125599999999999795e-02 -1.110050000000000064e-01 -2.424119999999999886e-01 2.758959999999999746e-01 -1.051389999999999963e-01 -1.816299999999999859e-02 7.922099999999999975e-02 1.305939999999999879e-01 1.099379999999999941e-01 1.950599999999999903e-02 1.259700000000000056e-02 2.625199999999999756e-01 -3.133199999999999874e-01 7.257800000000000362e-02 -1.118600000000000011e-01
-8.651399999999999368e-02 -5.020899999999999669e-02 -1.456669999999999909e-01 1.391070000000000084e-01 -8.342700000000000116e-02 -2.317100000000000062e-02 4.803199999999999831e-02 6.309800000000000131e-02 1.024299999999999933e-01 -2.756000000000000203e-03 5.845700000000000202e-02 1.566859999999999919e-01 -9.854300000000000559e-02 1.186399999999999955e-02 -9.026000000000000689e-02
-1.112530000000000047e-01 1.373500000000000068e-02 -4.275700000000000334e-02 -1.279600000000000008e-02 -5.881600000000000023e-02 -2.841600000000000029e-02 1.419400000000000002e-02 -9.001000000000000320e-03 9.303999999999999770e-02 -2.600099999999999981e-02 1.051330000000000042e-01 4.413399999999999962e-02 1.356040000000000023e-01 -5.132300000000000056e-02 -6.595099999999999574e-02
-1.326009999999999966e-01 7.543099999999999805e-02 5.817800000000000055e-02 -1.675399999999999945e-01 -3.282899999999999707e-02 -3.321000000000000341e-02 -1.982799999999999840e-02 -7.964100000000000346e-02 8.183100000000000096e-02 -4.828500000000000153e-02 1.479379999999999862e-01 -6.621599999999999708e-02 3.683170000000000055e-01 -1.111380000000000007e-01 -4.056099999999999983e-02
-1.480019999999999947e-01 1.300000000000000044e-01 1.497340000000000060e-01 -3.111249999999999849e-01 -7.200999999999999936e-03 -3.673799999999999982e-02 -5.164900000000000047e-02 -1.432690000000000075e-01 6.891700000000000603e-02 -6.772400000000000642e-02 1.827090000000000103e-01 -1.661839999999999984e-01 5.783350000000000435e-01 -1.624120000000000008e-01 -1.572600000000000040e-02