-3.867925619918282099e-01 -4.056980931317686451e-04 -2.559018741292694581e-04 -4.056980931317686451e-04 -3.861434450428174459e-01 2.933509288798942277e-04 -2.559018741292694581e-04 2.933509288798942277e-04 -3.857564714770609360e-01
-3.877287883605938790e-01 -3.620075292560397291e-04 -2.371773467539570733e-04 -3.620075292560397291e-04 -3.871795355575847197e-01 2.683848923794776966e-04 -2.371773467539570733e-04 2.683848923794776966e-04 -3.869173921743302991e-01
-3.867114223732018852e-01 -2.871094197547901356e-04 -2.059698011284363957e-04 -2.871094197547901356e-04 -3.863306903165705242e-01 2.309358376288529269e-04 -2.059698011284363957e-04 2.309358376288529269e-04 -3.862869997526948151e-01
-3.861184790063170169e-01 -1.934867828782281301e-04 -1.622792372527074526e-04 -1.934867828782281301e-04 -3.859874073146897788e-01 1.810037646280198646e-04 -1.622792372527074526e-04 1.810037646280198646e-04 -3.862433091888190506e-01
-3.861496865519425392e-01 -6.241509125104134149e-05 -1.061056551267702710e-04 -6.241509125104134149e-05 -3.862932412618199085e-01 1.123471642518744038e-04 -1.061056551267702710e-04 1.123471642518744038e-04 -3.869111506652052057e-01
-3.862620337161943862e-01 7.489810950124960707e-05 -4.369056387572892955e-05 7.489810950124960707e-05 -3.867363884097022586e-01 4.993207300083306912e-05 -4.369056387572892955e-05 4.993207300083306912e-05 -3.877412713788440102e-01
-3.859374752416889764e-01 2.122113102535405421e-04 1.248301825020826728e-05 2.122113102535405421e-04 -3.867176638823269785e-01 -1.872452737531240177e-05 1.248301825020826728e-05 -1.872452737531240177e-05 -3.881220034354753712e-01
-3.856441243128090890e-01 3.370414927556231979e-04 5.617358212593720192e-05 3.370414927556231979e-04 -3.866802148275763629e-01 -8.113961862635372631e-05 5.617358212593720192e-05 -8.113961862635372631e-05 -3.884278373826055564e-01
-3.854943280938065708e-01 4.306641296321851763e-04 9.362263687656199190e-05 4.306641296321851763e-04 -3.867551129370776497e-01 -1.185886733769785366e-04 9.362263687656199190e-05 -1.185886733769785366e-04 -3.887898449118615263e-01
-3.854381545116806196e-01 4.805962026330182386e-04 1.061056551267702710e-04 4.805962026330182386e-04 -3.867488714279525008e-01 -1.373132007522909486e-04 1.061056551267702710e-04 -1.373132007522909486e-04 -3.888772260396129998e-01
-1.326777210507397831e+00 -2.127486271378367655e-02 -1.010913812987066507e-01 -2.127486271378367655e-02 -1.020685936472113475e+00 -5.307655352264441240e-02 -1.010913812987066507e-01 -5.307655352264441240e-02 -1.090157797040242516e+00
-1.266218671626695214e+00 -2.081293144385136865e-02 -9.661520223232036853e-02 -2.081293144385136865e-02 -9.763014981132656089e-01 -5.408499502742620396e-02 -9.661520223232036853e-02 -5.408499502742620396e-02 -1.045044678368262092e+00
-1.134223437762094777e+00 -2.011678150184071159e-02 -8.790356884585054376e-02 -2.011678150184071159e-02 -8.765568741790095153e-01 -5.640766352553653468e-02 -8.790356884585054376e-02 -5.640766352553653468e-02 -9.436930541005794648e-01
-9.464711477943976714e-01 -1.918641288775170192e-02 -7.532732737008789037e-02 -1.918641288775170192e-02 -7.353165088415386519e-01 -5.967371278618466973e-02 -7.532732737008789037e-02 -5.967371278618466973e-02 -7.998892955186954756e-01
-7.212698945910619441e-01 -1.810640456650152233e-02 -5.963467634083828572e-02 -1.810640456650152233e-02 -5.682405227589805152e-01 -6.373350310220946002e-02 -5.963467634083828572e-02 -6.373350310220946002e-02 -6.294236447652257205e-01
-4.669669713819907253e-01 -1.688976868653896748e-02 -4.163887503615153890e-02 -1.688976868653896748e-02 -3.801954594511854912e-01 -6.815112750057615576e-02 -4.163887503615153890e-02 -6.815112750057615576e-02 -4.371821635826935726e-01
-2.010181753112459668e-01 -1.554301132208844340e-02 -2.245246214839983698e-02 -1.554301132208844340e-02 -1.841739491442777876e-01 -7.239308789488409224e-02 -2.245246214839983698e-02 -7.239308789488409224e-02 -2.362290490136916277e-01
5.146955318921794115e-02 -1.398805958245715603e-02 -3.409182893584907208e-03 -1.398805958245715603e-02 6.701256451130639192e-04 -7.552250959681985898e-02 -3.409182893584907208e-03 -7.552250959681985898e-02 -4.560107423881033101e-02
2.695011125972664456e-01 -1.210780413160594121e-02 1.419625395763791410e-02 -1.210780413160594121e-02 1.592166484194844356e-01 -7.640082961711368303e-02 1.419625395763791410e-02 -7.640082961711368303e-02 1.197833325454040615e-01
4.327970695554488878e-01 -9.694050594354030465e-03 2.919926111910126770e-02 -9.694050594354030465e-03 2.767879157285929592e-01 -7.392852141184216852e-02 2.919926111910126770e-02 -7.392852141184216852e-02 2.454741804865621380e-01
7.066017855180195539e-01 -5.112679448560396300e-02 1.388862678728427502e-01 -5.112679448560396300e-02 2.257538890244835950e-01 2.295821799133427876e-01 1.388862678728427502e-01 2.295821799133427876e-01 -8.367090725411330254e-01
6.044149337889311857e-01 -6.060954988859423159e-02 1.350094408078966468e-01 -6.060954988859423159e-02 1.898674538301858283e-01 2.176422805959500328e-01 1.350094408078966468e-01 2.176422805959500328e-01 -8.069624636218358793e-01
4.049919202916246741e-01 -7.895015742745511989e-02 1.277836175929501217e-01 -7.895015742745511989e-02 1.151702788323507726e-01 1.941871735019254919e-01 1.277836175929501217e-01 1.941871735019254919e-01 -7.555262510136776521e-01
1.395961094481145692e-01 -1.031272401407732353e-01 1.178822376712097969e-01 -1.031272401407732353e-01 1.539203484157793470e-02 1.602057832190409703e-01 1.178822376712097969e-01 1.602057832190409703e-01 -6.791485109188315494e-01
-1.648349210133349951e-01 -1.304167051456678328e-01 1.059423383538170560e-01 -1.304167051456678328e-01 -1.021322485309905104e-01 1.184586047622424865e-01 1.059423383538170560e-01 1.184586047622424865e-01 -5.846000399014288362e-01
-4.803018645125576302e-01 -1.566019721445840174e-01 9.261915801794588787e-02 -1.566019721445840174e-01 -2.304618981049189330e-01 7.111156498941070825e-02 9.261915801794588787e-02 7.111156498941070825e-02 -4.812483199462534444e-01
-7.805041806324306553e-01 -1.782794417894235650e-01 7.831312011631375025e-02 -1.782794417894235650e-01 -3.614367692755868777e-01 2.186554732717653840e-02 7.831312011631375025e-02 2.186554732717653840e-02 -3.785275702802084474e-01
-1.042387185731646904e+00 -1.921425870842621841e-01 6.292715229674668287e-02 -1.921425870842621841e-01 -4.856105087720691271e-01 -2.567563715000308402e-02 6.292715229674668287e-02 -2.567563715000308402e-02 -2.834209332378057611e-01
-1.247428261611019273e+00 -1.955765215424147552e-01 4.630351198696208009e-02 -1.955765215424147552e-01 -5.946106262193647796e-01 -6.768369755326900106e-02 4.630351198696208009e-02 -6.768369755326900106e-02 -2.026264011190460623e-01
-1.384955516553427080e+00 -1.868339428247506873e-01 2.826625554864469619e-02 -1.868339428247506873e-01 -6.839050561753539093e-01 -1.007793026225664440e-01 2.826625554864469619e-02 -1.007793026225664440e-01 -1.437641535695824702e-01
-1.074139544397630264e+00 2.137121862234941105e-01 1.077954802905325693e-01 2.137121862234941105e-01 -3.825005050437718657e-01 2.773276142148315415e-01 1.077954802905325693e-01 2.773276142148315415e-01 -8.434863279601341191e-01
-1.027195834255045570e+00 1.974252003250970833e-01 1.104886039430234140e-01 1.974252003250970833e-01 -3.821285974917612016e-01 2.634452030061584793e-01 1.104886039430234140e-01 2.634452030061584793e-01 -8.092900697726730375e-01
-9.330968113971809252e-01 1.653193190679025926e-01 1.163301173892595242e-01 1.653193190679025926e-01 -3.794354738392703985e-01 2.362703029126912990e-01 1.163301173892595242e-01 2.362703029126912990e-01 -7.403076310738716526e-01
-8.009093254540883278e-01 1.204211004613765651e-01 1.239926954005132337e-01 1.204211004613765651e-01 -3.760754814728294315e-01 1.975342077110312511e-01 1.239926954005132337e-01 1.975342077110312511e-01 -6.441310556840853518e-01
-6.387063351840680525e-01 6.589817089678205730e-02 1.331300792214643314e-01 6.589817089678205730e-02 -3.717857202263618599e-01 1.493401187297902222e-01 1.331300792214643314e-01 1.493401187297902222e-01 -5.273969697469521600e-01
-4.569333130392808640e-01 6.065940417277009521e-03 1.418827310920595941e-01 6.065940417277009521e-03 -3.654568796430083255e-01 9.484283796188609783e-02 1.418827310920595941e-01 9.484283796188609783e-02 -3.975242877051672341e-01
-2.676580178625548867e-01 -5.410613661837569005e-02 1.489489745802617948e-01 -5.410613661837569005e-02 -3.554089635395484281e-01 3.783838731749643997e-02 1.489489745802617948e-01 3.783838731749643997e-02 -2.628424562839343226e-01
-8.882819513798985434e-02 -1.095267740671338197e-01 1.521550741665604334e-01 -1.095267740671338197e-01 -3.448160105064176917e-01 -1.760789892795208006e-02 1.521550741665604334e-01 -1.760789892795208006e-02 -1.369902231233678935e-01
6.490428002502948712e-02 -1.553483493545138594e-01 1.492759967380642427e-01 -1.553483493545138594e-01 -3.339601573072105700e-01 -6.753328168579435242e-02 1.492759967380642427e-01 -6.753328168579435242e-02 -2.981672615257726505e-02
1.784194419775188001e-01 -1.871400328522510870e-01 1.384201435388570933e-01 -1.871400328522510870e-01 -3.244765147309391917e-01 -1.080712048549542503e-01 1.384201435388570933e-01 -1.080712048549542503e-01 4.823897437544920341e-02
-1.798174593166706192e-01 4.967429042359833291e-01 2.389334347407968684e-01 4.967429042359833291e-01 4.838634336312233053e-01 -2.034247281707679822e-01 2.389334347407968684e-01 -2.034247281707679822e-01 -2.878045156544448147e-01
-1.927641696825375950e-01 4.532021025664506042e-01 2.271970400748551666e-01 4.532021025664506042e-01 4.009323573641236926e-01 -1.820302587276450557e-01 2.271970400748551666e-01 -1.820302587276450557e-01 -2.929758645541253870e-01
-2.225085949140336306e-01 3.708028316826514348e-01 2.043721975318205930e-01 3.708028316826514348e-01 2.391901683741143314e-01 -1.407389327024178016e-01 2.043721975318205930e-01 -1.407389327024178016e-01 -3.080986980976356815e-01
-2.595026889339707710e-01 2.597044082172916268e-01 1.718709420949392497e-01 2.597044082172916268e-01 2.577116662063036467e-02 -8.397634891703507909e-02 1.718709420949392497e-01 -8.397634891703507909e-02 -3.256360503354412961e-01
-3.026889536813032189e-01 1.310808579252365769e-01 1.319488621140718632e-01 1.310808579252365769e-01 -2.190671416864684307e-01 -1.723782966560190311e-02 1.319488621140718632e-01 -1.723782966560190311e-02 -3.465659541563707591e-01
-3.483325260618171382e-01 -2.659026916502420929e-03 8.679430617797213865e-02 -2.659026916502420929e-03 -4.705805244598215697e-01 5.331501785226234330e-02 8.679430617797213865e-02 5.331501785226234330e-02 -3.695558397493951541e-01
-3.943428607756418458e-01 -1.301028250364081318e-01 3.977537504754311698e-02 -1.301028250364081318e-01 -7.082853053840276747e-01 1.210682462258550751e-01 3.977537504754311698e-02 1.210682462258550751e-01 -3.942572828978693211e-01
-4.362271192397213504e-01 -2.422709719739240541e-01 -6.033240382960666261e-03 -2.422709719739240541e-01 -9.134582673435764910e-01 1.801903343555364689e-01 -6.033240382960666261e-03 1.801903343555364689e-01 -4.174183242464386545e-01
-4.729400288041203382e-01 -3.318465591795021763e-01 -4.755684921928467895e-02 -3.318465591795021763e-01 -1.074106282039208882e+00 2.251920726527567862e-01 -4.755684921928467895e-02 2.251920726527567862e-01 -4.389961748562169475e-01
-5.046038435799422572e-01 -3.937927172756758298e-01 -8.213031183937133384e-02 -3.937927172756758298e-01 -1.183499260654674146e+00 2.521674422677572247e-01 -8.213031183937133384e-02 2.521674422677572247e-01 -4.597121339827150988e-01
-3.596001998171756142e-01 -3.490224285978459351e-01 -2.343775003407830848e-01 -3.490224285978459351e-01 -3.554432992369277455e-01 6.268429988453645407e-01 -2.343775003407830848e-01 6.268429988453645407e-01 -8.709241264105387348e-01
-3.691088740642780586e-01 -3.315018158647588531e-01 -2.116623340838159062e-01 -3.315018158647588531e-01 -3.446705750403095680e-01 5.783877507805994522e-01 -2.116623340838159062e-01 5.783877507805994522e-01 -8.536550659062109858e-01
-3.834284846864027818e-01 -2.983094992799658063e-01 -1.684582387944016657e-01 -2.983094992799658063e-01 -3.196788611130704783e-01 4.856655992599118177e-01 -1.684582387944016657e-01 4.856655992599118177e-01 -8.142871421053764491e-01
-4.062002501948407396e-01 -2.520930660511586097e-01 -1.079473501663457957e-01 -2.520930660511586097e-01 -2.866752086998469173e-01 3.544308015161714565e-01 -1.079473501663457957e-01 3.544308015161714565e-01 -7.568703458910601700e-01
-4.283934455771322702e-01 -1.965188899125044908e-01 -3.564495081519650221e-02 -1.965188899125044908e-01 -2.420875761522564285e-01 1.957893884491024583e-01 -3.564495081519650221e-02 1.957893884491024583e-01 -6.758831058419952909e-01
-4.522154416406404809e-01 -1.356180953298716796e-01 4.253748188320204127e-02 -1.356180953298716796e-01 -1.945064720824299098e-01 2.152029317036034325e-02 4.253748188320204127e-02 2.152029317036034325e-02 -5.787462127065814421e-01
-4.727861251474342885e-01 -7.357273810638388645e-02 1.198394817809429330e-01 -7.357273810638388645e-02 -1.466172165323731957e-01 -1.542203826466238270e-01 1.198394817809429330e-01 -1.542203826466238270e-01 -4.692140834990519704e-01
-4.869485156265844217e-01 -1.387939422179581411e-02 1.894880051186813574e-01 -1.387939422179581411e-02 -1.036961175003131841e-01 -3.168803425681230301e-01 1.894880051186813574e-01 -3.168803425681230301e-01 -3.552797902882341430e-01
-4.944825048779262211e-01 4.055650808172234917e-02 2.447980514171381461e-01 4.055650808172234917e-02 -7.438399404413270632e-02 -4.518695573260964049e-01 2.447980514171381461e-01 -4.518695573260964049e-01 -2.496089877921602584e-01
-4.945831257694299210e-01 8.746470993961767693e-02 2.803046485065170401e-01 8.746470993961767693e-02 -6.535955783739189062e-02 -5.466795923454863537e-01 2.803046485065170401e-01 -5.466795923454863537e-01 -1.637982337566351865e-01
-1.375806087305519121e+00 -4.338700509651410853e-01 1.517538519327030766e-01 -4.338700509651410853e-01 -1.355789059253673656e+00 -2.907437833346034894e-01 1.517538519327030766e-01 -2.907437833346034894e-01 -1.107518544338556427e-01
-1.307295195356311668e+00 -4.050253973894646919e-01 1.405709023473233898e-01 -4.050253973894646919e-01 -1.293402009864492719e+00 -2.665000778572396700e-01 1.405709023473233898e-01 -2.665000778572396700e-01 -1.351697893623477198e-01
-1.168685987569839879e+00 -3.477877962225183750e-01 1.189406386368832419e-01 -3.477877962225183750e-01 -1.166020922261840953e+00 -2.196000907905693023e-01 1.189406386368832419e-01 -2.196000907905693023e-01 -1.785142050374749212e-01
-9.725487961978743767e-01 -2.657967071100922340e-01 8.910868483814672614e-02 -2.657967071100922340e-01 -9.835897810452978174e-01 -1.552642527258055183e-01 8.910868483814672614e-02 -1.552642527258055183e-01 -2.382426420612917262e-01
-7.279822703548907148e-01 -1.627432132390513875e-01 5.381754157072516503e-02 -1.627432132390513875e-01 -7.522259758322545897e-01 -7.914534141066476014e-02 5.381754157072516503e-02 -7.914534141066476014e-02 -3.062050338865767718e-01
-4.517640608902755428e-01 -4.552551028554748663e-02 1.597748596272368163e-02 -4.552551028554748663e-02 -4.858743156556056819e-01 1.955241618216993580e-03 1.597748596272368163e-02 1.955241618216993580e-03 -3.757548495999192273e-01
-1.646920019146340119e-01 7.740949984201667133e-02 -2.135924011979619536e-02 7.740949984201667133e-02 -2.035580754015018368e-01 8.120383011103182724e-02 -2.135924011979619536e-02 8.120383011103182724e-02 -4.407617936986584217e-01
1.099323307192894422e-01 1.952789500015928992e-01 -5.534043603243873205e-02 1.952789500015928992e-01 7.162121029897824953e-02 1.521539343760346108e-01 -5.534043603243873205e-02 1.521539343760346108e-01 -4.948439059173931898e-01
3.461358429081172194e-01 2.962029728032885556e-01 -8.357206005784910408e-02 2.962029728032885556e-01 3.123546882171404637e-01 2.093076472887339667e-01 -8.357206005784910408e-02 2.093076472887339667e-01 -5.342907442413551422e-01
5.202943116673859336e-01 3.688308421532300319e-01 -1.041892117746916618e-01 3.688308421532300319e-01 4.924692230279415495e-01 2.484963679073207699e-01 -1.041892117746916618e-01 2.484963679073207699e-01 -5.564114315920081211e-01
-8.617518226149186722e-01 1.696065384103991047e-01 2.498996202583870022e-02 1.696065384103991047e-01 5.187179153804718189e-03 1.196018840647822129e-01 2.498996202583870022e-02 1.196018840647822129e-01 3.648398439155783324e-01
-8.265173363246528515e-01 1.641102305823509411e-01 2.903336508494273882e-02 1.641102305823509411e-01 -3.358373916980599005e-02 1.175987302556847913e-01 2.903336508494273882e-02 1.175987302556847913e-01 3.098149399002482207e-01
-7.605183643736810328e-01 1.531237974997395057e-01 3.674303422057382390e-02 1.531237974997395057e-01 -1.105567790564195157e-01 1.137037089602176004e-01 3.674303422057382390e-02 1.137037089602176004e-01 2.017682856786852941e-01
-6.617703006733605120e-01 1.368141686466562423e-01 4.712975767515300424e-02 1.368141686466562423e-01 -2.124023120726592218e-01 1.077127952533799837e-01 4.712975767515300424e-02 1.077127952533799837e-01 5.630469672669793230e-02
-5.429288731472170504e-01 1.158428793859821310e-01 5.881482156155456997e-02 1.158428793859821310e-01 -3.341866445776000005e-01 9.965690200259624820e-02 5.881482156155456997e-02 9.965690200259624820e-02 -1.182479004715960014e-01
-4.098675266058759981e-01 9.091474309499210371e-02 7.024021736159165308e-02 9.091474309499210371e-02 -4.630067457083212323e-01 8.932582170938088706e-02 7.024021736159165308e-02 8.932582170938088706e-02 -3.056602505184164986e-01
-2.736097895728579199e-01 6.342702138126650457e-02 7.985411913056225663e-02 6.342702138126650457e-02 -5.871157258435726334e-01 7.691739672524970650e-02 7.985411913056225663e-02 7.691739672524970650e-02 -4.905872060243198773e-01
-1.466877385019913493e-01 3.492535761602246630e-02 8.607997062982489234e-02 3.492535761602246630e-02 -6.963247038802908850e-01 6.262328682823360693e-02 8.607997062982489234e-02 6.262328682823360693e-02 -6.595260264983532350e-01
-4.178183161074169871e-02 7.196515536386997869e-03 8.757615341316309088e-02 7.196515536386997869e-03 -7.817678694411742679e-01 4.674643811909114793e-02 8.757615341316309088e-02 4.674643811909114793e-02 -8.008225609215391394e-01
2.950942324327761671e-02 -1.807784486975565555e-02 8.331017770860378591e-02 -1.807784486975565555e-02 -8.370091635284747644e-01 2.978145647661183115e-02 8.331017770860378591e-02 2.978145647661183115e-02 -9.056295466370308800e-01
-1.078756121495937137e+00 2.015428629424855234e-01 -2.573364238195820497e-01 2.015428629424855234e-01 4.862128494365433595e-02 5.737057061649936118e-01 -2.573364238195820497e-01 5.737057061649936118e-01 -7.987127939225646678e-01
-1.031280364208023270e+00 1.801024036525415706e-01 -2.336367294308165088e-01 1.801024036525415706e-01 1.329448484912224004e-02 5.323776139628874082e-01 -2.336367294308165088e-01 5.323776139628874082e-01 -7.799070482408240190e-01
-9.326122487935709637e-01 1.388634080458819031e-01 -1.879047197966411120e-01 1.388634080458819031e-01 -4.782577962716784425e-02 4.526107048681540235e-01 -1.879047197966411120e-01 4.526107048681540235e-01 -7.364151815778745558e-01
-7.937870250028803421e-01 8.089334462287831040e-02 -1.231187668219812514e-01 8.089334462287831040e-02 -1.344213063586213175e-01 3.400498846065814207e-01 -1.231187668219812514e-01 3.400498846065814207e-01 -6.752440047613292862e-01
-6.189222283540858349e-01 1.111161826068330846e-02 -4.464375836122188440e-02 1.111161826068330846e-02 -2.332612509214349039e-01 2.032547903835644210e-01 -4.464375836122188440e-02 2.032547903835644210e-01 -5.944143005637699817e-01
-4.204150136993127229e-01 -6.458866765617118921e-02 4.108625858589429886e-02 -6.458866765617118921e-02 -3.361169063218722441e-01 5.263063173874624884e-02 4.108625858589429886e-02 5.263063173874624884e-02 -4.985845481185413042e-01
-2.127372137560834264e-01 -1.396589133623683809e-01 1.269181002135207348e-01 -1.396589133623683809e-01 -4.337031345059030873e-01 -9.986455541044815531e-02 1.269181002135207348e-01 -9.986455541044815531e-02 -3.937051271929623009e-01
-1.451638101524549071e-02 -2.070095754773806918e-01 2.049030773993244237e-01 -2.070095754773806918e-01 -5.197895378348051931e-01 -2.417699757865743870e-01 2.049030773993244237e-01 -2.417699757865743870e-01 -2.891502724365097587e-01
1.564981699017544137e-01 -2.599265891300620579e-01 2.673788829349075247e-01 -2.599265891300620579e-01 -5.877384199478152826e-01 -3.608857598559955804e-01 2.673788829349075247e-01 -3.608857598559955804e-01 -1.935750816925567996e-01
2.798269501272880877e-01 -2.923132015748600709e-01 3.074214385455715237e-01 -2.923132015748600709e-01 -6.367860957411063394e-01 -4.465648644628566477e-01 3.074214385455715237e-01 -4.465648644628566477e-01 -1.192367008775271769e-01
-1.594408383508708393e+00 3.148130849891060401e-01 1.362449667775334772e-01 3.148130849891060401e-01 -1.676618172328345202e-01 -3.092761390430446289e-01 1.362449667775334772e-01 -3.092761390430446289e-01 -1.422195828397038619e+00
-1.518695965484915700e+00 2.828547869674846726e-01 1.287162672839365085e-01 2.828547869674846726e-01 -1.734501495489732814e-01 -2.900418588299509826e-01 1.287162672839365085e-01 -2.900418588299509826e-01 -1.358491943897707444e+00
-1.364931302454303053e+00 2.192669269466507032e-01 1.135944102531330074e-01 2.192669269466507032e-01 -1.811206567385112987e-01 -2.516119732299294531e-01 1.135944102531330074e-01 -2.516119732299294531e-01 -1.229775676613771074e+00
-1.146901969944955857e+00 1.304759718744775698e-01 9.179469990437878757e-02 1.304759718744775698e-01 -1.920334035216103297e-01 -1.966808284658598249e-01 9.179469990437878757e-02 -1.966808284658598249e-01 -1.049048213941278229e+00
-8.701320222942139360e-01 2.195440965341718259e-02 6.393593345632561653e-02 2.195440965341718259e-02 -1.998779474288941149e-01 -1.271434910198631640e-01 6.393593345632561653e-02 -1.271434910198631640e-01 -8.227875892629897825e-01
-5.544358621076568294e-01 -9.699646402367051445e-02 3.197118963034328160e-02 -9.699646402367051445e-02 -2.046156136341970300e-01 -4.787298898882250131e-02 3.197118963034328160e-02 -4.787298898882250131e-02 -5.674950617429542765e-01
-2.217227784081750863e-01 -2.165403517019661994e-01 -1.830608438511591466e-03 -2.165403517019661994e-01 -2.052859772877364819e-01 3.565174392044933444e-02 -1.830608438511591466e-03 3.565174392044933444e-02 -3.012124377874882408e-01
1.011604536408482885e-01 -3.253068544887429692e-01 -3.469131907066684561e-02 -3.253068544887429692e-01 -2.026560891084663307e-01 1.165788176722557801e-01 -3.469131907066684561e-02 1.165788176722557801e-01 -4.418598889435548793e-02
3.837767458469775739e-01 -4.119706941218004848e-01 -6.332358204203476781e-02 -4.119706941218004848e-01 -2.000197551248351635e-01 1.870507967505910807e-01 -6.332358204203476781e-02 1.870507967505910807e-01 1.815976462612220454e-01
5.973584733472648844e-01 -4.660445469058629442e-01 -8.472365252040971184e-02 -4.660445469058629442e-01 -2.011735541054463505e-01 2.396807893577993509e-01 -8.472365252040971184e-02 2.396807893577993509e-01 3.561822573777236323e-01
-1.958689414186211453e+00 2.176595812858686529e-01 -2.095479612287533266e-01 2.176595812858686529e-01 -1.305243718516106988e+00 -1.340818775888307779e-01 -2.095479612287533266e-01 -1.340818775888307779e-01 -1.497661218966347185e+00
-1.847548212071409734e+00 2.051052482698398072e-01 -2.042313813064499106e-01 2.051052482698398072e-01 -1.236581789858304248e+00 -1.267307219120700212e-01 -2.042313813064499106e-01 -1.267307219120700212e-01 -1.415317602202340819e+00
-1.642349573439070287e+00 1.798564966940326415e-01 -1.938984047698778246e-01 1.798564966940326415e-01 -1.117402345828351518e+00 -1.121284716612266918e-01 -1.938984047698778246e-01 -1.121284716612266918e-01 -1.268808135660873582e+00
-1.337283283593676986e+00 1.428539009236224622e-01 -1.793161667395701542e-01 1.428539009236224622e-01 -9.397471933932400878e-01 -9.085548123183458114e-02 -1.793161667395701542e-01 -9.085548123183458114e-02 -1.051628847667860578e+00
-9.512475494610581617e-01 9.554501157735438566e-02 -1.611917656744530913e-01 9.554501157735438566e-02 -7.190857790270245298e-01 -6.378561758728357178e-02 -1.611917656744530913e-01 -6.378561758728357178e-02 -7.811370041678853404e-01
-5.058488984795337373e-01 4.029127067843472215e-02 -1.406859103655940801e-01 4.029127067843472215e-02 -4.698535844760843849e-01 -3.231306542489036093e-02 -1.406859103655940801e-01 -3.231306542489036093e-02 -4.748032736885676175e-01
-3.102561257043044696e-02 -1.912501209189939808e-02 -1.189993340451319520e-01 -1.912501209189939808e-02 -2.093678512439324790e-01 1.534270241066222878e-03 -1.189993340451319520e-01 1.534270241066222878e-03 -1.541874884869768592e-01
4.337515386297782771e-01 -7.771412308009346959e-02 -9.705926959788496733e-02 -7.771412308009346959e-02 4.171213833646561508e-02 3.509476407934521147e-02 -9.705926959788496733e-02 3.509476407934521147e-02 1.546544402994752543e-01
8.441154621935645919e-01 -1.295324327870605030e-01 -7.545941289974396338e-02 -1.295324327870605030e-01 2.629072119169651445e-01 6.537325374977819015e-02 -7.545941289974396338e-02 6.537325374977819015e-02 4.249728445548081046e-01
1.153624464997871524e+00 -1.684562017288926961e-01 -5.446659355785091194e-02 -1.684562017288926961e-01 4.340850756387057974e-01 8.918779618719739621e-02 -5.446659355785091194e-02 8.918779618719739621e-02 6.306517764800031456e-01
-1.156107558818453729e+00 4.021058188293073765e-02 1.148321424926002920e-01 4.021058188293073765e-02 -1.356460516128049631e+00 1.809076212100421965e-01 1.148321424926002920e-01 1.809076212100421965e-01 -1.813422581362303720e+00
-1.103491159149691647e+00 3.507093356865029904e-02 1.123923094406850676e-01 3.507093356865029904e-02 -1.284118799517710796e+00 1.717815790021953171e-01 1.123923094406850676e-01 1.717815790021953171e-01 -1.712656143076099813e+00
-1.004671254336600539e+00 2.504495294001505071e-02 1.077259620736340795e-01 2.504495294001505071e-02 -1.146948185557985056e+00 1.538361402706221459e-01 1.077259620736340795e-01 1.538361402706221459e-01 -1.519955995448467378e+00
-8.642475296409878327e-01 1.009930894440319582e-02 1.014130607070665296e-01 1.009930894440319582e-02 -9.498350065632271688e-01 1.271446333310905230e-01 1.014130607070665296e-01 1.271446333310905230e-01 -1.240435121951589226e+00
-6.880195882190454082e-01 -9.219369155187867593e-03 9.412022639341829922e-02 -9.219369155187867593e-03 -7.021919517938316480e-01 9.266032628858378306e-02 9.412022639341829922e-02 9.266032628858378306e-02 -8.873592815289388369e-01
-4.904931041717773832e-01 -3.191114978010435588e-02 8.634742492201623321e-02 -3.191114978010435588e-02 -4.222044435602483881e-01 5.167646398482744069e-02 8.634742492201623321e-02 5.167646398482744069e-02 -4.832802643844213986e-01
-2.839739021271496244e-01 -5.628281545715919237e-02 7.856129102956543875e-02 -5.628281545715919237e-02 -1.290311709094839887e-01 6.812867155894432140e-03 7.856129102956543875e-02 6.812867155894432140e-03 -5.608949535195279640e-02
-8.556747829066628508e-02 -7.988786692391279531e-02 7.070182882134672109e-02 -7.988786692391279531e-02 1.523295766921171079e-01 -3.841070504135393054e-02 7.070182882134672109e-02 -3.841070504135393054e-02 3.582488197895525861e-01
8.955387218423267737e-02 -9.967984597073331621e-02 6.217574556069214997e-02 -9.967984597073331621e-02 3.968861759887346574e-01 -7.957455502926795432e-02 6.217574556069214997e-02 -7.957455502926795432e-02 7.207706805252188653e-01
2.275044327753083795e-01 -1.123389797564901954e-01 5.212976630048381937e-02 -1.123389797564901954e-01 5.810735727767611936e-01 -1.118723450197850883e-01 5.212976630048381937e-02 -1.118723450197850883e-01 9.933586950767642199e-01
8.452319729874782084e-01 -1.402294134929921166e-01 5.571750345904566415e-02 -1.402294134929921166e-01 1.094864685734312365e-01 6.430770603946789343e-02 5.571750345904566415e-02 6.430770603946789343e-02 4.367458598253671775e-01
7.359237243845951904e-01 -1.235004989242030338e-01 5.484422560335958791e-02 -1.235004989242030338e-01 6.358888549159023851e-02 5.927002153863936140e-02 5.484422560335958791e-02 5.927002153863936140e-02 3.687311783984971725e-01
5.335252444987133025e-01 -9.262091869388856813e-02 5.302638190376816885e-02 -9.262091869388856813e-02 -2.119629516386341284e-02 4.978871910547624791e-02 5.302638190376816885e-02 4.978871910547624791e-02 2.423494566170986131e-01
2.587100499134214471e-01 -5.098279290814904108e-02 5.025209102890151186e-02 -5.098279290814904108e-02 -1.370630386829194691e-01 3.701034721717182119e-02 5.025209102890151186e-02 3.701034721717182119e-02 6.897112860214522911e-02
-6.172351646651930146e-02 -3.914898686374996759e-03 4.645006499054035731e-02 -3.914898686374996759e-03 -2.764726403113899611e-01 2.210521701365912237e-02 4.645006499054035731e-02 2.210521701365912237e-02 -1.382689938169621435e-01
-3.977750929321653972e-01 4.364607078724901112e-02 4.153119380341062372e-02 4.364607078724901112e-02 -4.265576181756963181e-01 6.451562933844075948e-03 4.153119380341062372e-02 6.451562933844075948e-03 -3.607885083777333524e-01
-7.202463076420403398e-01 8.719115025785406647e-02 3.557270612141651134e-02 8.719115025785406647e-02 -5.737970171769167793e-01 -8.732778556860765901e-03 3.557270612141651134e-02 -8.732778556860765901e-03 -5.793218362639104280e-01
-1.006497283670840348e+00 1.232688129624903983e-01 2.859242394161283507e-02 1.232688129624903983e-01 -7.073253597772973800e-01 -2.241413162927596847e-02 2.859242394161283507e-02 -2.241413162927596847e-02 -7.783281960436918556e-01
-1.240030792411489058e+00 1.493542759850588764e-01 2.069727924632851213e-02 1.493542759850588764e-01 -8.188078920208682332e-01 -3.379050641593472210e-02 2.069727924632851213e-02 -3.379050641593472210e-02 -9.454688250894590640e-01
-1.405995169651638177e+00 1.639386102415848201e-01 1.213677999433098419e-02 1.639386102415848201e-01 -8.988583621254252476e-01 -4.228565834539790846e-02 1.213677999433098419e-02 -4.228565834539790846e-02 -1.068315850788318810e+00