   5   5   0   0
  0.2000000E+03  0.1000000E-08  0.1000000E-08  0.1000000E-08  0.5000000E-15
  1.000000000000000E-004
  CAR 
 unknown system                          
      2.70055114    -18.88021425  301     -8.30549871      1.00000000
    -18.880  0.0000E+00  0.0000E+00
    -18.808  0.0000E+00  0.0000E+00
    -18.736  0.0000E+00  0.0000E+00
    -18.664  0.0000E+00  0.0000E+00
    -18.592  0.0000E+00  0.0000E+00
    -18.521  0.0000E+00  0.0000E+00
    -18.449  0.0000E+00  0.0000E+00
    -18.377  0.0000E+00  0.0000E+00
    -18.305  0.0000E+00  0.0000E+00
    -18.233  0.0000E+00  0.0000E+00
    -18.161  0.0000E+00  0.0000E+00
    -18.089  0.0000E+00  0.0000E+00
    -18.017  0.1235E-13  0.8882E-15
    -17.945  0.6932E-12  0.5075E-13
    -17.873  0.2984E-10  0.2197E-11
    -17.801  0.9954E-09  0.7380E-10
    -17.729  0.2572E-07  0.1924E-08
    -17.657  0.5150E-06  0.3897E-07
    -17.585  0.7991E-05  0.6138E-06
    -17.513  0.9611E-04  0.7527E-05
    -17.441  0.8963E-03  0.7200E-04
    -17.370  0.6482E-02  0.5383E-03
    -17.298  0.3636E-01  0.3154E-02
    -17.226  0.1583E+00  0.1454E-01
    -17.154  0.5345E+00  0.5298E-01
    -17.082  0.1401E+01  0.1537E+00
    -17.010  0.2850E+01  0.3587E+00
    -16.938  0.4500E+01  0.6824E+00
    -16.866  0.5517E+01  0.1079E+01
    -16.794  0.5250E+01  0.1457E+01
    -16.722  0.3879E+01  0.1736E+01
    -16.650  0.2225E+01  0.1896E+01
    -16.578  0.9904E+00  0.1967E+01
    -16.506  0.3422E+00  0.1992E+01
    -16.434  0.9176E-01  0.1998E+01
    -16.362  0.1909E-01  0.2000E+01
    -16.291  0.3082E-02  0.2000E+01
    -16.219  0.3858E-03  0.2000E+01
    -16.147  0.3745E-04  0.2000E+01
    -16.075  0.2818E-05  0.2000E+01
    -16.003  0.1644E-06  0.2000E+01
    -15.931  0.7431E-08  0.2000E+01
    -15.859  0.2603E-09  0.2000E+01
    -15.787  0.7060E-11  0.2000E+01
    -15.715  0.1479E-12  0.2000E+01
    -15.643  0.3087E-14  0.2000E+01
    -15.571  0.0000E+00  0.2000E+01
    -15.499  0.0000E+00  0.2000E+01
    -15.427  0.0000E+00  0.2000E+01
    -15.355  0.0000E+00  0.2000E+01
    -15.283  0.0000E+00  0.2000E+01
    -15.211  0.0000E+00  0.2000E+01
    -15.140  0.0000E+00  0.2000E+01
    -15.068  0.0000E+00  0.2000E+01
    -14.996  0.0000E+00  0.2000E+01
    -14.924  0.0000E+00  0.2000E+01
    -14.852  0.0000E+00  0.2000E+01
    -14.780  0.0000E+00  0.2000E+01
    -14.708  0.0000E+00  0.2000E+01
    -14.636  0.0000E+00  0.2000E+01
    -14.564  0.0000E+00  0.2000E+01
    -14.492  0.0000E+00  0.2000E+01
    -14.420  0.0000E+00  0.2000E+01
    -14.348  0.0000E+00  0.2000E+01
    -14.276  0.0000E+00  0.2000E+01
    -14.204  0.0000E+00  0.2000E+01
    -14.132  0.0000E+00  0.2000E+01
    -14.061  0.0000E+00  0.2000E+01
    -13.989  0.0000E+00  0.2000E+01
    -13.917  0.0000E+00  0.2000E+01
    -13.845  0.0000E+00  0.2000E+01
    -13.773  0.0000E+00  0.2000E+01
    -13.701  0.0000E+00  0.2000E+01
    -13.629  0.0000E+00  0.2000E+01
    -13.557  0.0000E+00  0.2000E+01
    -13.485  0.0000E+00  0.2000E+01
    -13.413  0.0000E+00  0.2000E+01
    -13.341  0.0000E+00  0.2000E+01
    -13.269  0.0000E+00  0.2000E+01
    -13.197  0.0000E+00  0.2000E+01
    -13.125  0.0000E+00  0.2000E+01
    -13.053  0.0000E+00  0.2000E+01
    -12.981  0.0000E+00  0.2000E+01
    -12.910  0.0000E+00  0.2000E+01
    -12.838  0.0000E+00  0.2000E+01
    -12.766  0.0000E+00  0.2000E+01
    -12.694  0.0000E+00  0.2000E+01
    -12.622  0.0000E+00  0.2000E+01
    -12.550  0.0000E+00  0.2000E+01
    -12.478  0.0000E+00  0.2000E+01
    -12.406  0.0000E+00  0.2000E+01
    -12.334  0.0000E+00  0.2000E+01
    -12.262  0.0000E+00  0.2000E+01
    -12.190  0.0000E+00  0.2000E+01
    -12.118  0.0000E+00  0.2000E+01
    -12.046  0.0000E+00  0.2000E+01
    -11.974  0.0000E+00  0.2000E+01
    -11.902  0.0000E+00  0.2000E+01
    -11.830  0.0000E+00  0.2000E+01
    -11.759  0.0000E+00  0.2000E+01
    -11.687  0.0000E+00  0.2000E+01
    -11.615  0.0000E+00  0.2000E+01
    -11.543  0.0000E+00  0.2000E+01
    -11.471  0.0000E+00  0.2000E+01
    -11.399  0.0000E+00  0.2000E+01
    -11.327  0.0000E+00  0.2000E+01
    -11.255  0.0000E+00  0.2000E+01
    -11.183  0.0000E+00  0.2000E+01
    -11.111  0.0000E+00  0.2000E+01
    -11.039  0.0000E+00  0.2000E+01
    -10.967  0.0000E+00  0.2000E+01
    -10.895  0.0000E+00  0.2000E+01
    -10.823  0.0000E+00  0.2000E+01
    -10.751  0.0000E+00  0.2000E+01
    -10.680  0.0000E+00  0.2000E+01
    -10.608  0.0000E+00  0.2000E+01
    -10.536  0.0000E+00  0.2000E+01
    -10.464  0.4630E-14  0.2000E+01
    -10.392  0.1989E-12  0.2000E+01
    -10.320  0.1002E-10  0.2000E+01
    -10.248  0.3887E-09  0.2000E+01
    -10.176  0.1168E-07  0.2000E+01
    -10.104  0.2718E-06  0.2000E+01
    -10.032  0.4902E-05  0.2000E+01
     -9.960  0.6852E-04  0.2000E+01
     -9.888  0.7425E-03  0.2000E+01
     -9.816  0.6239E-02  0.2001E+01
     -9.744  0.4066E-01  0.2003E+01
     -9.672  0.2055E+00  0.2018E+01
     -9.600  0.8062E+00  0.2076E+01
     -9.529  0.2454E+01  0.2253E+01
     -9.457  0.5797E+01  0.2670E+01
     -9.385  0.1063E+02  0.3434E+01
     -9.313  0.1513E+02  0.4523E+01
     -9.241  0.1672E+02  0.5725E+01
     -9.169  0.1435E+02  0.6757E+01
     -9.097  0.9554E+01  0.7445E+01
     -9.025  0.4940E+01  0.7800E+01
     -8.953  0.1982E+01  0.7943E+01
     -8.881  0.6174E+00  0.7987E+01
     -8.809  0.1492E+00  0.7998E+01
     -8.737  0.2798E-01  0.8000E+01
     -8.665  0.4069E-02  0.8000E+01
     -8.593  0.4590E-03  0.8000E+01
     -8.521  0.4015E-04  0.8000E+01
     -8.450  0.2722E-05  0.8000E+01
     -8.378  0.1431E-06  0.8000E+01
     -8.306  0.5825E-08  0.8000E+01
     -8.234  0.1838E-09  0.8000E+01
     -8.162  0.4488E-11  0.8000E+01
     -8.090  0.8790E-13  0.8000E+01
     -8.018  0.0000E+00  0.8000E+01
     -7.946  0.0000E+00  0.8000E+01
     -7.874  0.0000E+00  0.8000E+01
     -7.802  0.0000E+00  0.8000E+01
     -7.730  0.0000E+00  0.8000E+01
     -7.658  0.0000E+00  0.8000E+01
     -7.586  0.0000E+00  0.8000E+01
     -7.514  0.0000E+00  0.8000E+01
     -7.442  0.0000E+00  0.8000E+01
     -7.370  0.0000E+00  0.8000E+01
     -7.299  0.0000E+00  0.8000E+01
     -7.227  0.0000E+00  0.8000E+01
     -7.155  0.0000E+00  0.8000E+01
     -7.083  0.0000E+00  0.8000E+01
     -7.011  0.0000E+00  0.8000E+01
     -6.939  0.0000E+00  0.8000E+01
     -6.867  0.0000E+00  0.8000E+01
     -6.795  0.0000E+00  0.8000E+01
     -6.723  0.0000E+00  0.8000E+01
     -6.651  0.0000E+00  0.8000E+01
     -6.579  0.0000E+00  0.8000E+01
     -6.507  0.0000E+00  0.8000E+01
     -6.435  0.0000E+00  0.8000E+01
     -6.363  0.0000E+00  0.8000E+01
     -6.291  0.0000E+00  0.8000E+01
     -6.219  0.0000E+00  0.8000E+01
     -6.148  0.0000E+00  0.8000E+01
     -6.076  0.0000E+00  0.8000E+01
     -6.004  0.0000E+00  0.8000E+01
     -5.932  0.0000E+00  0.8000E+01
     -5.860  0.0000E+00  0.8000E+01
     -5.788  0.0000E+00  0.8000E+01
     -5.716  0.0000E+00  0.8000E+01
     -5.644  0.0000E+00  0.8000E+01
     -5.572  0.0000E+00  0.8000E+01
     -5.500  0.0000E+00  0.8000E+01
     -5.428  0.0000E+00  0.8000E+01
     -5.356  0.0000E+00  0.8000E+01
     -5.284  0.0000E+00  0.8000E+01
     -5.212  0.0000E+00  0.8000E+01
     -5.140  0.0000E+00  0.8000E+01
     -5.069  0.0000E+00  0.8000E+01
     -4.997  0.0000E+00  0.8000E+01
     -4.925  0.0000E+00  0.8000E+01
     -4.853  0.0000E+00  0.8000E+01
     -4.781  0.0000E+00  0.8000E+01
     -4.709  0.0000E+00  0.8000E+01
     -4.637  0.0000E+00  0.8000E+01
     -4.565  0.0000E+00  0.8000E+01
     -4.493  0.0000E+00  0.8000E+01
     -4.421  0.0000E+00  0.8000E+01
     -4.349  0.0000E+00  0.8000E+01
     -4.277  0.0000E+00  0.8000E+01
     -4.205  0.0000E+00  0.8000E+01
     -4.133  0.0000E+00  0.8000E+01
     -4.061  0.0000E+00  0.8000E+01
     -3.989  0.0000E+00  0.8000E+01
     -3.918  0.0000E+00  0.8000E+01
     -3.846  0.0000E+00  0.8000E+01
     -3.774  0.0000E+00  0.8000E+01
     -3.702  0.0000E+00  0.8000E+01
     -3.630  0.0000E+00  0.8000E+01
     -3.558  0.0000E+00  0.8000E+01
     -3.486  0.0000E+00  0.8000E+01
     -3.414  0.0000E+00  0.8000E+01
     -3.342  0.0000E+00  0.8000E+01
     -3.270  0.0000E+00  0.8000E+01
     -3.198  0.0000E+00  0.8000E+01
     -3.126  0.0000E+00  0.8000E+01
     -3.054  0.0000E+00  0.8000E+01
     -2.982  0.0000E+00  0.8000E+01
     -2.910  0.0000E+00  0.8000E+01
     -2.839  0.0000E+00  0.8000E+01
     -2.767  0.0000E+00  0.8000E+01
     -2.695  0.0000E+00  0.8000E+01
     -2.623  0.0000E+00  0.8000E+01
     -2.551  0.0000E+00  0.8000E+01
     -2.479  0.0000E+00  0.8000E+01
     -2.407  0.0000E+00  0.8000E+01
     -2.335  0.0000E+00  0.8000E+01
     -2.263  0.0000E+00  0.8000E+01
     -2.191  0.0000E+00  0.8000E+01
     -2.119  0.0000E+00  0.8000E+01
     -2.047  0.0000E+00  0.8000E+01
     -1.975  0.0000E+00  0.8000E+01
     -1.903  0.0000E+00  0.8000E+01
     -1.831  0.0000E+00  0.8000E+01
     -1.759  0.0000E+00  0.8000E+01
     -1.688  0.0000E+00  0.8000E+01
     -1.616  0.0000E+00  0.8000E+01
     -1.544  0.0000E+00  0.8000E+01
     -1.472  0.3087E-14  0.8000E+01
     -1.400  0.2108E-12  0.8000E+01
     -1.328  0.9791E-11  0.8000E+01
     -1.256  0.3529E-09  0.8000E+01
     -1.184  0.9854E-08  0.8000E+01
     -1.112  0.2132E-06  0.8000E+01
     -1.040  0.3573E-05  0.8000E+01
     -0.968  0.4643E-04  0.8000E+01
     -0.896  0.4677E-03  0.8000E+01
     -0.824  0.3654E-02  0.8000E+01
     -0.752  0.2214E-01  0.8002E+01
     -0.680  0.1041E+00  0.8009E+01
     -0.608  0.3795E+00  0.8037E+01
     -0.537  0.1074E+01  0.8114E+01
     -0.465  0.2360E+01  0.8284E+01
     -0.393  0.4024E+01  0.8573E+01
     -0.321  0.5327E+01  0.8956E+01
     -0.249  0.5474E+01  0.9350E+01
     -0.177  0.4367E+01  0.9664E+01
     -0.105  0.2705E+01  0.9859E+01
     -0.033  0.1301E+01  0.9952E+01
      0.039  0.4878E+00  0.9987E+01
      0.111  0.1575E+00  0.9999E+01
      0.183  0.1187E+00  0.1001E+02
      0.255  0.3589E+00  0.1003E+02
      0.327  0.1139E+01  0.1011E+02
      0.399  0.2932E+01  0.1033E+02
      0.471  0.6085E+01  0.1076E+02
      0.542  0.1023E+02  0.1150E+02
      0.614  0.1396E+02  0.1250E+02
      0.686  0.1545E+02  0.1361E+02
      0.758  0.1381E+02  0.1461E+02
      0.830  0.9903E+01  0.1532E+02
      0.902  0.5659E+01  0.1573E+02
      0.974  0.2560E+01  0.1591E+02
      1.046  0.9120E+00  0.1598E+02
      1.118  0.2549E+00  0.1600E+02
      1.190  0.5571E-01  0.1600E+02
      1.262  0.9501E-02  0.1600E+02
      1.334  0.1263E-02  0.1600E+02
      1.406  0.1306E-03  0.1600E+02
      1.478  0.1050E-04  0.1600E+02
      1.550  0.6560E-06  0.1600E+02
      1.622  0.3183E-07  0.1600E+02
      1.693  0.1199E-08  0.1600E+02
      1.765  0.3505E-10  0.1600E+02
      1.837  0.7938E-12  0.1600E+02
      1.909  0.1474E-13  0.1600E+02
      1.981  0.0000E+00  0.1600E+02
      2.053  0.0000E+00  0.1600E+02
      2.125  0.0000E+00  0.1600E+02
      2.197  0.0000E+00  0.1600E+02
      2.269  0.0000E+00  0.1600E+02
      2.341  0.0000E+00  0.1600E+02
      2.413  0.0000E+00  0.1600E+02
      2.485  0.0000E+00  0.1600E+02
      2.557  0.0000E+00  0.1600E+02
      2.629  0.0000E+00  0.1600E+02
      2.701  0.0000E+00  0.1600E+02
      2.70023211    -18.88025711  301     -8.30567690      1.00000000
    -18.880  0.0000E+00  0.0000E+00
    -18.808  0.0000E+00  0.0000E+00
    -18.736  0.0000E+00  0.0000E+00
    -18.664  0.0000E+00  0.0000E+00
    -18.593  0.0000E+00  0.0000E+00
    -18.521  0.0000E+00  0.0000E+00
    -18.449  0.0000E+00  0.0000E+00
    -18.377  0.0000E+00  0.0000E+00
    -18.305  0.0000E+00  0.0000E+00
    -18.233  0.0000E+00  0.0000E+00
    -18.161  0.0000E+00  0.0000E+00
    -18.089  0.0000E+00  0.0000E+00
    -18.017  0.1235E-14  0.8882E-16
    -17.945  0.6945E-13  0.5085E-14
    -17.873  0.2991E-11  0.2203E-12
    -17.801  0.9979E-10  0.7398E-11
    -17.729  0.2578E-08  0.1929E-09
    -17.657  0.5162E-07  0.3906E-08
    -17.585  0.8009E-06  0.6152E-07
    -17.513  0.9632E-05  0.7544E-06
    -17.442  0.8982E-04  0.7215E-05
    -17.370  0.6495E-03  0.5394E-04
    -17.298  0.3643E-02  0.3160E-03
    -17.226  0.1585E-01  0.1456E-02
    -17.154  0.5352E-01  0.5306E-02
    -17.082  0.1402E+00  0.1539E-01
    -17.010  0.2852E+00  0.3591E-01
    -16.938  0.4502E+00  0.6829E-01
    -16.866  0.5517E+00  0.1080E+00
    -16.794  0.5249E+00  0.1457E+00
    -16.722  0.3876E+00  0.1736E+00
    -16.650  0.2222E+00  0.1896E+00
    -16.578  0.9889E-01  0.1967E+00
    -16.506  0.3416E-01  0.1992E+00
    -16.434  0.9154E-02  0.1998E+00
    -16.363  0.1904E-02  0.2000E+00
    -16.291  0.3071E-03  0.2000E+00
    -16.219  0.3842E-04  0.2000E+00
    -16.147  0.3728E-05  0.2000E+00
    -16.075  0.2804E-06  0.2000E+00
    -16.003  0.1634E-07  0.2000E+00
    -15.931  0.7383E-09  0.2000E+00
    -15.859  0.2584E-10  0.2000E+00
    -15.787  0.7005E-12  0.2000E+00
    -15.715  0.1451E-13  0.2000E+00
    -15.643  0.3087E-15  0.2000E+00
    -15.571  0.0000E+00  0.2000E+00
    -15.499  0.0000E+00  0.2000E+00
    -15.427  0.0000E+00  0.2000E+00
    -15.355  0.0000E+00  0.2000E+00
    -15.284  0.0000E+00  0.2000E+00
    -15.212  0.0000E+00  0.2000E+00
    -15.140  0.0000E+00  0.2000E+00
    -15.068  0.0000E+00  0.2000E+00
    -14.996  0.0000E+00  0.2000E+00
    -14.924  0.0000E+00  0.2000E+00
    -14.852  0.0000E+00  0.2000E+00
    -14.780  0.0000E+00  0.2000E+00
    -14.708  0.0000E+00  0.2000E+00
    -14.636  0.0000E+00  0.2000E+00
    -14.564  0.0000E+00  0.2000E+00
    -14.492  0.0000E+00  0.2000E+00
    -14.420  0.0000E+00  0.2000E+00
    -14.348  0.0000E+00  0.2000E+00
    -14.276  0.0000E+00  0.2000E+00
    -14.204  0.0000E+00  0.2000E+00
    -14.133  0.0000E+00  0.2000E+00
    -14.061  0.0000E+00  0.2000E+00
    -13.989  0.0000E+00  0.2000E+00
    -13.917  0.0000E+00  0.2000E+00
    -13.845  0.0000E+00  0.2000E+00
    -13.773  0.0000E+00  0.2000E+00
    -13.701  0.0000E+00  0.2000E+00
    -13.629  0.0000E+00  0.2000E+00
    -13.557  0.0000E+00  0.2000E+00
    -13.485  0.0000E+00  0.2000E+00
    -13.413  0.0000E+00  0.2000E+00
    -13.341  0.0000E+00  0.2000E+00
    -13.269  0.0000E+00  0.2000E+00
    -13.197  0.0000E+00  0.2000E+00
    -13.125  0.0000E+00  0.2000E+00
    -13.054  0.0000E+00  0.2000E+00
    -12.982  0.0000E+00  0.2000E+00
    -12.910  0.0000E+00  0.2000E+00
    -12.838  0.0000E+00  0.2000E+00
    -12.766  0.0000E+00  0.2000E+00
    -12.694  0.0000E+00  0.2000E+00
    -12.622  0.0000E+00  0.2000E+00
    -12.550  0.0000E+00  0.2000E+00
    -12.478  0.0000E+00  0.2000E+00
    -12.406  0.0000E+00  0.2000E+00
    -12.334  0.0000E+00  0.2000E+00
    -12.262  0.0000E+00  0.2000E+00
    -12.190  0.0000E+00  0.2000E+00
    -12.118  0.0000E+00  0.2000E+00
    -12.046  0.0000E+00  0.2000E+00
    -11.975  0.0000E+00  0.2000E+00
    -11.903  0.0000E+00  0.2000E+00
    -11.831  0.0000E+00  0.2000E+00
    -11.759  0.0000E+00  0.2000E+00
    -11.687  0.0000E+00  0.2000E+00
    -11.615  0.0000E+00  0.2000E+00
    -11.543  0.0000E+00  0.2000E+00
    -11.471  0.0000E+00  0.2000E+00
    -11.399  0.0000E+00  0.2000E+00
    -11.327  0.0000E+00  0.2000E+00
    -11.255  0.0000E+00  0.2000E+00
    -11.183  0.0000E+00  0.2000E+00
    -11.111  0.0000E+00  0.2000E+00
    -11.039  0.0000E+00  0.2000E+00
    -10.967  0.0000E+00  0.2000E+00
    -10.895  0.0000E+00  0.2000E+00
    -10.824  0.0000E+00  0.2000E+00
    -10.752  0.0000E+00  0.2000E+00
    -10.680  0.0000E+00  0.2000E+00
    -10.608  0.0000E+00  0.2000E+00
    -10.536  0.0000E+00  0.2000E+00
    -10.464  0.4630E-15  0.2000E+00
    -10.392  0.2041E-13  0.2000E+00
    -10.320  0.1027E-11  0.2000E+00
    -10.248  0.3979E-10  0.2000E+00
    -10.176  0.1194E-08  0.2000E+00
    -10.104  0.2774E-07  0.2000E+00
    -10.032  0.4994E-06  0.2000E+00
     -9.960  0.6970E-05  0.2000E+00
     -9.888  0.7541E-04  0.2000E+00
     -9.816  0.6326E-03  0.2001E+00
     -9.745  0.4116E-02  0.2003E+00
     -9.673  0.2077E-01  0.2018E+00
     -9.601  0.8133E-01  0.2077E+00
     -9.529  0.2471E+00  0.2255E+00
     -9.457  0.5828E+00  0.2674E+00
     -9.385  0.1067E+01  0.3441E+00
     -9.313  0.1516E+01  0.4532E+00
     -9.241  0.1672E+01  0.5734E+00
     -9.169  0.1432E+01  0.6764E+00
     -9.097  0.9516E+00  0.7448E+00
     -9.025  0.4910E+00  0.7802E+00
     -8.953  0.1967E+00  0.7943E+00
     -8.881  0.6112E-01  0.7987E+00
     -8.809  0.1474E-01  0.7998E+00
     -8.737  0.2759E-02  0.8000E+00
     -8.665  0.4004E-03  0.8000E+00
     -8.594  0.4507E-04  0.8000E+00
     -8.522  0.3934E-05  0.8000E+00
     -8.450  0.2661E-06  0.8000E+00
     -8.378  0.1395E-07  0.8000E+00
     -8.306  0.5669E-09  0.8000E+00
     -8.234  0.1784E-10  0.8000E+00
     -8.162  0.4348E-12  0.8000E+00
     -8.090  0.8334E-14  0.8000E+00
     -8.018  0.0000E+00  0.8000E+00
     -7.946  0.0000E+00  0.8000E+00
     -7.874  0.0000E+00  0.8000E+00
     -7.802  0.0000E+00  0.8000E+00
     -7.730  0.0000E+00  0.8000E+00
     -7.658  0.0000E+00  0.8000E+00
     -7.586  0.0000E+00  0.8000E+00
     -7.515  0.0000E+00  0.8000E+00
     -7.443  0.0000E+00  0.8000E+00
     -7.371  0.0000E+00  0.8000E+00
     -7.299  0.0000E+00  0.8000E+00
     -7.227  0.0000E+00  0.8000E+00
     -7.155  0.0000E+00  0.8000E+00
     -7.083  0.0000E+00  0.8000E+00
     -7.011  0.0000E+00  0.8000E+00
     -6.939  0.0000E+00  0.8000E+00
     -6.867  0.0000E+00  0.8000E+00
     -6.795  0.0000E+00  0.8000E+00
     -6.723  0.0000E+00  0.8000E+00
     -6.651  0.0000E+00  0.8000E+00
     -6.579  0.0000E+00  0.8000E+00
     -6.507  0.0000E+00  0.8000E+00
     -6.436  0.0000E+00  0.8000E+00
     -6.364  0.0000E+00  0.8000E+00
     -6.292  0.0000E+00  0.8000E+00
     -6.220  0.0000E+00  0.8000E+00
     -6.148  0.0000E+00  0.8000E+00
     -6.076  0.0000E+00  0.8000E+00
     -6.004  0.0000E+00  0.8000E+00
     -5.932  0.0000E+00  0.8000E+00
     -5.860  0.0000E+00  0.8000E+00
     -5.788  0.0000E+00  0.8000E+00
     -5.716  0.0000E+00  0.8000E+00
     -5.644  0.0000E+00  0.8000E+00
     -5.572  0.0000E+00  0.8000E+00
     -5.500  0.0000E+00  0.8000E+00
     -5.428  0.0000E+00  0.8000E+00
     -5.356  0.0000E+00  0.8000E+00
     -5.285  0.0000E+00  0.8000E+00
     -5.213  0.0000E+00  0.8000E+00
     -5.141  0.0000E+00  0.8000E+00
     -5.069  0.0000E+00  0.8000E+00
     -4.997  0.0000E+00  0.8000E+00
     -4.925  0.0000E+00  0.8000E+00
     -4.853  0.0000E+00  0.8000E+00
     -4.781  0.0000E+00  0.8000E+00
     -4.709  0.0000E+00  0.8000E+00
     -4.637  0.0000E+00  0.8000E+00
     -4.565  0.0000E+00  0.8000E+00
     -4.493  0.0000E+00  0.8000E+00
     -4.421  0.0000E+00  0.8000E+00
     -4.349  0.0000E+00  0.8000E+00
     -4.277  0.0000E+00  0.8000E+00
     -4.206  0.0000E+00  0.8000E+00
     -4.134  0.0000E+00  0.8000E+00
     -4.062  0.0000E+00  0.8000E+00
     -3.990  0.0000E+00  0.8000E+00
     -3.918  0.0000E+00  0.8000E+00
     -3.846  0.0000E+00  0.8000E+00
     -3.774  0.0000E+00  0.8000E+00
     -3.702  0.0000E+00  0.8000E+00
     -3.630  0.0000E+00  0.8000E+00
     -3.558  0.0000E+00  0.8000E+00
     -3.486  0.0000E+00  0.8000E+00
     -3.414  0.0000E+00  0.8000E+00
     -3.342  0.0000E+00  0.8000E+00
     -3.270  0.0000E+00  0.8000E+00
     -3.198  0.0000E+00  0.8000E+00
     -3.126  0.0000E+00  0.8000E+00
     -3.055  0.0000E+00  0.8000E+00
     -2.983  0.0000E+00  0.8000E+00
     -2.911  0.0000E+00  0.8000E+00
     -2.839  0.0000E+00  0.8000E+00
     -2.767  0.0000E+00  0.8000E+00
     -2.695  0.0000E+00  0.8000E+00
     -2.623  0.0000E+00  0.8000E+00
     -2.551  0.0000E+00  0.8000E+00
     -2.479  0.0000E+00  0.8000E+00
     -2.407  0.0000E+00  0.8000E+00
     -2.335  0.0000E+00  0.8000E+00
     -2.263  0.0000E+00  0.8000E+00
     -2.191  0.0000E+00  0.8000E+00
     -2.119  0.0000E+00  0.8000E+00
     -2.047  0.0000E+00  0.8000E+00
     -1.976  0.0000E+00  0.8000E+00
     -1.904  0.0000E+00  0.8000E+00
     -1.832  0.0000E+00  0.8000E+00
     -1.760  0.0000E+00  0.8000E+00
     -1.688  0.0000E+00  0.8000E+00
     -1.616  0.0000E+00  0.8000E+00
     -1.544  0.0000E+00  0.8000E+00
     -1.472  0.3087E-15  0.8000E+00
     -1.400  0.2138E-13  0.8000E+00
     -1.328  0.9924E-12  0.8000E+00
     -1.256  0.3575E-10  0.8000E+00
     -1.184  0.9973E-09  0.8000E+00
     -1.112  0.2156E-07  0.8000E+00
     -1.040  0.3610E-06  0.8000E+00
     -0.968  0.4687E-05  0.8000E+00
     -0.897  0.4718E-04  0.8000E+00
     -0.825  0.3682E-03  0.8000E+00
     -0.753  0.2229E-02  0.8002E+00
     -0.681  0.1047E-01  0.8009E+00
     -0.609  0.3814E-01  0.8037E+00
     -0.537  0.1078E+00  0.8114E+00
     -0.465  0.2366E+00  0.8285E+00
     -0.393  0.4031E+00  0.8575E+00
     -0.321  0.5330E+00  0.8958E+00
     -0.249  0.5472E+00  0.9352E+00
     -0.177  0.4360E+00  0.9665E+00
     -0.105  0.2697E+00  0.9859E+00
     -0.033  0.1296E+00  0.9953E+00
      0.039  0.4851E-01  0.9987E+00
      0.111  0.1553E-01  0.9999E+00
      0.183  0.1131E-01  0.1001E+01
      0.254  0.3416E-01  0.1003E+01
      0.326  0.1097E+00  0.1011E+01
      0.398  0.2860E+00  0.1032E+01
      0.470  0.5997E+00  0.1075E+01
      0.542  0.1017E+01  0.1148E+01
      0.614  0.1396E+01  0.1248E+01
      0.686  0.1551E+01  0.1360E+01
      0.758  0.1389E+01  0.1460E+01
      0.830  0.9972E+00  0.1532E+01
      0.902  0.5698E+00  0.1573E+01
      0.974  0.2577E+00  0.1591E+01
      1.046  0.9178E-01  0.1598E+01
      1.118  0.2564E-01  0.1600E+01
      1.190  0.5603E-02  0.1600E+01
      1.262  0.9554E-03  0.1600E+01
      1.333  0.1270E-03  0.1600E+01
      1.405  0.1313E-04  0.1600E+01
      1.477  0.1056E-05  0.1600E+01
      1.549  0.6596E-07  0.1600E+01
      1.621  0.3201E-08  0.1600E+01
      1.693  0.1206E-09  0.1600E+01
      1.765  0.3524E-11  0.1600E+01
      1.837  0.7979E-13  0.1600E+01
      1.909  0.1466E-14  0.1600E+01
      1.981  0.0000E+00  0.1600E+01
      2.053  0.0000E+00  0.1600E+01
      2.125  0.0000E+00  0.1600E+01
      2.197  0.0000E+00  0.1600E+01
      2.269  0.0000E+00  0.1600E+01
      2.341  0.0000E+00  0.1600E+01
      2.412  0.0000E+00  0.1600E+01
      2.484  0.0000E+00  0.1600E+01
      2.556  0.0000E+00  0.1600E+01
      2.628  0.0000E+00  0.1600E+01
      2.700  0.0000E+00  0.1600E+01
