    5    5   10    1
  0.2000000E+03  0.1000000E-08  0.1000000E-08  0.1000000E-08  0.5000000E-15
  1.000000000000000E-004
  CAR 
 unknown system                          
      8      4      8
 
  0.2500000E+00  0.2500000E+00  0.2500000E+00  0.2500000E+00
    1      -16.880250   1.000000
    2       -9.285180   1.000000
    3       -9.285069   1.000000
    4       -9.284839   1.000000
    5       -0.313581   0.000000
    6        0.570538   0.000000
    7        0.673549   0.000000
    8        0.697755   0.000000
 
 -0.2500000E+00  0.2500000E+00  0.2500000E+00  0.2500000E+00
    1      -16.880240   1.000000
    2       -9.285312   1.000000
    3       -9.285073   1.000000
    4       -9.284820   1.000000
    5       -0.313636   0.000000
    6        0.566115   0.000000
    7        0.670861   0.000000
    8        0.700232   0.000000
 
  0.2500000E+00 -0.2500000E+00  0.2500000E+00  0.2500000E+00
    1      -16.880241   1.000000
    2       -9.285308   1.000000
    3       -9.285055   1.000000
    4       -9.284833   1.000000
    5       -0.313590   0.000000
    6        0.565710   0.000000
    7        0.672785   0.000000
    8        0.699981   0.000000
 
 -0.2500000E+00 -0.2500000E+00  0.2500000E+00  0.2500000E+00
    1      -16.880257   1.000000
    2       -9.285175   1.000000
    3       -9.285096   1.000000
    4       -9.284834   1.000000
    5       -0.313588   0.000000
    6        0.569778   0.000000
    7        0.674425   0.000000
    8        0.696971   0.000000
