 running on   16 total cores
 distrk:  each k-point on   16 cores,    1 groups
 distr:  one band on    4 cores,    4 groups
 using from now: INCAR     
 vasp.5.4.4.18Apr17-6-g9f103f2a35 (build Nov 25 2021 15:25:00) complex          
  
 POSCAR found type information on POSCAR  H  C 
 POSCAR found :  2 types and       5 ions
 scaLAPACK will be used
 LDA part: xc-table for Pade appr. of Perdew
 POSCAR found type information on POSCAR  H  C 
 POSCAR found :  2 types and       5 ions
 generate k-points for:    2    2    2
 POSCAR, INCAR and KPOINTS ok, starting setup
 FFT: planning ...
 WAVECAR not read
 prediction of wavefunctions initialized - no I/O
 entering main loop
       N       E                     dE             d eps       ncg     rms          rms(c)
DAV:   1     0.139437248930E+02    0.13944E+02   -0.20370E+03    96   0.417E+02
DAV:   2    -0.229835616803E+02   -0.36927E+02   -0.36927E+02    64   0.114E+02
DAV:   3    -0.273752431573E+02   -0.43917E+01   -0.43917E+01    64   0.450E+01
DAV:   4    -0.275550665075E+02   -0.17982E+00   -0.17982E+00   128   0.969E+00
DAV:   5    -0.275551239448E+02   -0.57437E-04   -0.57437E-04    88   0.199E-01    0.871E+00
RMM:   6    -0.246653697231E+02    0.28898E+01   -0.53843E+00    64   0.142E+01    0.429E+00
RMM:   7    -0.241726646575E+02    0.49271E+00   -0.12245E+00    64   0.639E+00    0.228E+00
RMM:   8    -0.240264629032E+02    0.14620E+00   -0.16147E-01    64   0.288E+00    0.226E-01
RMM:   9    -0.240208021536E+02    0.56607E-02   -0.11030E-02    64   0.696E-01    0.196E-01
RMM:  10    -0.240146725869E+02    0.61296E-02   -0.24733E-02    64   0.857E-01    0.281E-01
RMM:  11    -0.240152736995E+02   -0.60111E-03   -0.76577E-03    64   0.545E-01    0.744E-02
RMM:  12    -0.240251313403E+02   -0.98576E-02   -0.40730E-03    64   0.394E-01    0.130E-01
RMM:  13    -0.240255313064E+02   -0.39997E-03   -0.86413E-04    64   0.164E-01    0.594E-02
RMM:  14    -0.240283800518E+02   -0.28487E-02   -0.20789E-03    64   0.279E-01    0.477E-02
RMM:  15    -0.240285497354E+02   -0.16968E-03   -0.12970E-04    64   0.710E-02    0.176E-02
RMM:  16    -0.240287645271E+02   -0.21479E-03   -0.23760E-04    64   0.938E-02    0.184E-02
RMM:  17    -0.240287707303E+02   -0.62033E-05   -0.31116E-05    64   0.326E-02    0.641E-03
RMM:  18    -0.240287873726E+02   -0.16642E-04   -0.18465E-05    64   0.273E-02    0.343E-03
RMM:  19    -0.240287887542E+02   -0.13816E-05   -0.42798E-07    48   0.567E-03    0.311E-03
RMM:  20    -0.240287900523E+02   -0.12981E-05   -0.18225E-06    48   0.836E-03    0.179E-04
RMM:  21    -0.240287902089E+02   -0.15660E-06   -0.28708E-07    48   0.461E-03
    1 T=     0. E= -.24028790E+02 F= -.24028790E+02 E0= -.24028790E+02  EK= 0.16891E-08 SP= 0.00E+00 SK= 0.00E+00
 bond charge predicted
       N       E                     dE             d eps       ncg     rms          rms(c)
DAV:   1    -0.240287902302E+02   -0.17785E-06   -0.62712E-08    64   0.208E-03    0.615E-04
RMM:   2    -0.240287902576E+02   -0.27395E-07    0.00000E+00    32   0.113E-03    0.372E-04
RMM:   3    -0.240287903478E+02   -0.90201E-07   -0.22388E-07    48   0.296E-03    0.416E-04
RMM:   4    -0.240287903415E+02    0.62442E-08    0.00000E+00    28   0.156E-03
    2 T=     0. E= -.24028790E+02 F= -.24028790E+02 E0= -.24028790E+02  EK= 0.14644E-07 SP= 0.00E+00 SK= 0.00E+00
 bond charge predicted
 prediction of wavefunctions
       N       E                     dE             d eps       ncg     rms          rms(c)
DAV:   1    -0.240287903950E+02   -0.47279E-07   -0.10679E-06    64   0.681E-03    0.291E-03
RMM:   2    -0.240287901936E+02    0.20142E-06   -0.79788E-07    48   0.557E-03    0.101E-03
RMM:   3    -0.240287903118E+02   -0.11821E-06   -0.59906E-07    48   0.555E-03    0.325E-04
RMM:   4    -0.240287903426E+02   -0.30752E-07   -0.52879E-08    44   0.215E-03
    3 T=     0. E= -.24028790E+02 F= -.24028790E+02 E0= -.24028790E+02  EK= 0.37029E-07 SP= 0.00E+00 SK= 0.00E+00
 bond charge predicted
 prediction of wavefunctions
       N       E                     dE             d eps       ncg     rms          rms(c)
DAV:   1    -0.240287899591E+02    0.35270E-06   -0.17627E-07    96   0.258E-03    0.837E-04
RMM:   2    -0.240287900940E+02   -0.13483E-06   -0.50999E-09    33   0.168E-03    0.493E-04
RMM:   3    -0.240287903497E+02   -0.25578E-06   -0.41730E-07    48   0.403E-03    0.539E-04
RMM:   4    -0.240287903284E+02    0.21371E-07   -0.31670E-08    43   0.185E-03
    4 T=     0. E= -.24028790E+02 F= -.24028790E+02 E0= -.24028790E+02  EK= 0.62412E-07 SP= 0.00E+00 SK= 0.00E+00
 bond charge predicted
 prediction of wavefunctions
       N       E                     dE             d eps       ncg     rms          rms(c)
DAV:   1    -0.240287903950E+02   -0.45258E-07   -0.65828E-07    64   0.645E-03    0.662E-04
RMM:   2    -0.240287903888E+02    0.62096E-08    0.00000E+00    32   0.129E-03    0.402E-04
RMM:   3    -0.240287904157E+02   -0.26886E-07   -0.18581E-07    48   0.293E-03    0.373E-04
RMM:   4    -0.240287904152E+02    0.47424E-09   -0.28906E-09    29   0.158E-03
    5 T=     0. E= -.24028790E+02 F= -.24028790E+02 E0= -.24028790E+02  EK= 0.85100E-07 SP= 0.00E+00 SK= 0.00E+00
 bond charge predicted
 prediction of wavefunctions
       N       E                     dE             d eps       ncg     rms          rms(c)
DAV:   1    -0.240287902359E+02    0.17981E-06   -0.57458E-07    80   0.499E-03    0.110E-03
RMM:   2    -0.240287902650E+02   -0.29171E-07   -0.10658E-07    46   0.213E-03    0.427E-04
RMM:   3    -0.240287903444E+02   -0.79355E-07   -0.11026E-07    46   0.239E-03    0.117E-04
RMM:   4    -0.240287903785E+02   -0.34156E-07    0.00000E+00    32   0.897E-04
    6 T=     0. E= -.24028790E+02 F= -.24028790E+02 E0= -.24028790E+02  EK= 0.10068E-06 SP= 0.00E+00 SK= 0.00E+00
 bond charge predicted
 prediction of wavefunctions
       N       E                     dE             d eps       ncg     rms          rms(c)
DAV:   1    -0.240287905350E+02   -0.19062E-06   -0.11207E-06    64   0.800E-03    0.209E-03
RMM:   2    -0.240287904024E+02    0.13263E-06   -0.31792E-07    48   0.375E-03    0.813E-04
RMM:   3    -0.240287904261E+02   -0.23724E-07   -0.30478E-07    48   0.392E-03    0.224E-04
RMM:   4    -0.240287904339E+02   -0.77837E-08    0.00000E+00    28   0.141E-03
    7 T=     0. E= -.24028790E+02 F= -.24028790E+02 E0= -.24028790E+02  EK= 0.10683E-06 SP= 0.00E+00 SK= 0.00E+00
 bond charge predicted
 prediction of wavefunctions
       N       E                     dE             d eps       ncg     rms          rms(c)
DAV:   1    -0.240287903113E+02    0.11477E-06   -0.78852E-07    64   0.828E-03    0.589E-04
RMM:   2    -0.240287903589E+02   -0.47524E-07    0.00000E+00    32   0.828E-04    0.359E-04
RMM:   3    -0.240287904130E+02   -0.54131E-07    0.00000E+00    32   0.125E-03    0.126E-05
RMM:   4    -0.240287904269E+02   -0.13891E-07    0.00000E+00    32   0.125E-03
    8 T=     0. E= -.24028790E+02 F= -.24028790E+02 E0= -.24028790E+02  EK= 0.10473E-06 SP= 0.00E+00 SK= 0.00E+00
 bond charge predicted
 prediction of wavefunctions
       N       E                     dE             d eps       ncg     rms          rms(c)
DAV:   1    -0.240287903765E+02    0.36511E-07   -0.65012E-07    96   0.734E-03    0.458E-04
RMM:   2    -0.240287903983E+02   -0.21786E-07    0.00000E+00    32   0.402E-04    0.280E-04
RMM:   3    -0.240287904278E+02   -0.29567E-07    0.00000E+00    32   0.626E-04    0.992E-06
RMM:   4    -0.240287904292E+02   -0.14047E-08    0.00000E+00    32   0.639E-04
    9 T=     0. E= -.24028790E+02 F= -.24028790E+02 E0= -.24028790E+02  EK= 0.98835E-07 SP= 0.00E+00 SK= 0.00E+00
 bond charge predicted
 prediction of wavefunctions
       N       E                     dE             d eps       ncg     rms          rms(c)
DAV:   1    -0.240287903396E+02    0.88253E-07   -0.52888E-07    80   0.576E-03    0.585E-04
RMM:   2    -0.240287903520E+02   -0.12464E-07    0.00000E+00    32   0.674E-04    0.362E-04
RMM:   3    -0.240287903914E+02   -0.39398E-07   -0.13419E-08    35   0.153E-03    0.504E-05
RMM:   4    -0.240287903943E+02   -0.29098E-08    0.00000E+00    32   0.131E-03
   10 T=     0. E= -.24028790E+02 F= -.24028790E+02 E0= -.24028790E+02  EK= 0.94127E-07 SP= 0.00E+00 SK= 0.00E+00
 bond charge predicted
 prediction of wavefunctions
 wavefunctions rotated
