 vasp.5.4.4.18Apr17-6-g9f103f2a35 (build Nov 25 2021 15:25:00) complex          
  
 executed on             LinuxIFC date 2022.02.21  10:16:55
 running on   16 total cores
 distrk:  each k-point on   16 cores,    1 groups
 distr:  one band on NCORES_PER_BAND=   4 cores,    4 groups


--------------------------------------------------------------------------------------------------------


 INCAR:
 POTCAR:    PAW_PBE H 15Jun2001                   
 POTCAR:    PAW_PBE C 08Apr2002                   
 POTCAR:    PAW_PBE H 15Jun2001                   
   VRHFIN =H: ultrasoft test                                                    
   LEXCH  = PE                                                                  
   EATOM  =    12.4884 eV,    0.9179 Ry                                         
                                                                                
   TITEL  = PAW_PBE H 15Jun2001                                                 
   LULTRA =        F    use ultrasoft PP ?                                      
   IUNSCR =        0    unscreen: 0-lin 1-nonlin 2-no                           
   RPACOR =    0.000    partial core radius                                     
   POMASS =    1.000; ZVAL   =    1.000    mass and valenz                      
   RCORE  =    1.100    outmost cutoff radius                                   
   RWIGS  =    0.700; RWIGS  =    0.370    wigner-seitz radius (au A)           
   ENMAX  =  250.000; ENMIN  =  200.000 eV                                      
   RCLOC  =    0.701    cutoff for local pot                                    
   LCOR   =        T    correct aug charges                                     
   LPAW   =        T    paw PP                                                  
   EAUG   =  400.000                                                            
   RMAX   =    1.123    core radius for proj-oper                               
   RAUG   =    1.200    factor for augmentation sphere                          
   RDEP   =    1.112    radius for radial grids                                 
   RDEPT  =    0.926    core radius for aug-charge                              
                                                                                
   Atomic configuration                                                         
    2 entries                                                                   
     n  l   j            E        occ.                                          
     1  0  0.50        -6.4927   1.0000                                         
     2  1  0.50        -3.4015   0.0000                                         
   Description                                                                  
     l       E           TYP  RCUT    TYP  RCUT                                 
     0     -6.4927494     23  1.100                                             
     0      6.8029130     23  1.100                                             
     1     -4.0817478     23  1.100                                             
  local pseudopotential read in
  atomic valenz-charges read in
  non local Contribution for L=           0  read in
    real space projection operators read in
  non local Contribution for L=           0  read in
    real space projection operators read in
  non local Contribution for L=           1  read in
    real space projection operators read in
    PAW grid and wavefunctions read in
 
   number of l-projection  operators is LMAX  =           3
   number of lm-projection operators is LMMAX =           5
 
 POTCAR:    PAW_PBE C 08Apr2002                   
   VRHFIN =C: s2p2                                                              
   LEXCH  = PE                                                                  
   EATOM  =   147.1560 eV,   10.8157 Ry                                         
                                                                                
   TITEL  = PAW_PBE C 08Apr2002                                                 
   LULTRA =        F    use ultrasoft PP ?                                      
   IUNSCR =        1    unscreen: 0-lin 1-nonlin 2-no                           
   RPACOR =    1.200    partial core radius                                     
   POMASS =   12.011; ZVAL   =    4.000    mass and valenz                      
   RCORE  =    1.500    outmost cutoff radius                                   
   RWIGS  =    1.630; RWIGS  =    0.863    wigner-seitz radius (au A)           
   ENMAX  =  400.000; ENMIN  =  300.000 eV                                      
   ICORE  =        2    local potential                                         
   LCOR   =        T    correct aug charges                                     
   LPAW   =        T    paw PP                                                  
   EAUG   =  644.873                                                            
   DEXC   =    0.000                                                            
   RMAX   =    1.529    core radius for proj-oper                               
   RAUG   =    1.300    factor for augmentation sphere                          
   RDEP   =    1.501    radius for radial grids                                 
   RDEPT  =    1.300    core radius for aug-charge                              
                                                                                
   Atomic configuration                                                         
    4 entries                                                                   
     n  l   j            E        occ.                                          
     1  0  0.50      -273.3789   2.0000                                         
     2  0  0.50       -13.7508   2.0000                                         
     2  1  0.50        -5.2854   2.0000                                         
     3  2  1.50        -5.4423   0.0000                                         
   Description                                                                  
     l       E           TYP  RCUT    TYP  RCUT                                 
     0    -13.7508458     23  1.200                                             
     0     -8.2022199     23  1.200                                             
     1     -5.2854383     23  1.500                                             
     1     34.0145650     23  1.500                                             
     2     -5.4423304      7  1.500                                             
  local pseudopotential read in
  partial core-charges read in
  partial kinetic energy density read in
  atomic valenz-charges read in
  non local Contribution for L=           0  read in
    real space projection operators read in
  non local Contribution for L=           0  read in
    real space projection operators read in
  non local Contribution for L=           1  read in
    real space projection operators read in
  non local Contribution for L=           1  read in
    real space projection operators read in
    PAW grid and wavefunctions read in
 
   number of l-projection  operators is LMAX  =           4
   number of lm-projection operators is LMMAX =           8
 
  PAW_PBE H 15Jun2001                   :
 energy of atom  1       EATOM=  -12.4884
 kinetic energy error for atom=    0.0098 (will be added to EATOM!!)
  PAW_PBE C 08Apr2002                   :
 energy of atom  2       EATOM= -147.1560
 kinetic energy error for atom=    0.0288 (will be added to EATOM!!)
 
 
 POSCAR: H4 C1                                   
  positions in direct lattice
  velocities in cartesian coordinates
 exchange correlation table for  LEXCH =        8
   RHO(1)=    0.500       N(1)  =     2000
   RHO(2)=  100.500       N(2)  =     4000

 VTST: version 3.2, (02/03/18)

 CHAIN: initializing optimizer
 
 OPT: Using VASP Dynamics algorithm
 CHAIN: Read ICHAIN            0
 
 POSCAR: H4 C1                                   
  positions in direct lattice
  velocities in cartesian coordinates
 


--------------------------------------------------------------------------------------------------------


 ion  position               nearest neighbor table
   1  0.538  0.407  0.361-   5 1.10
   2  0.395  0.480  0.438-   5 1.10
   3  0.552  0.565  0.443-   5 1.10
   4  0.528  0.416  0.539-   5 1.10
   5  0.503  0.467  0.445-   1 1.10   4 1.10   3 1.10   2 1.10
 

IMPORTANT INFORMATION: All symmetrisations will be switched off!
NOSYMM: (Re-)initialisation of all symmetry stuff for point group C_1.

 
 

Automatic generation of k-mesh.
 generate k-points for:    2    2    2
Space group operators:
 irot       det(A)        alpha          n_x          n_y          n_z        tau_x        tau_y        tau_z
    1     1.000000     0.000000     1.000000     0.000000     0.000000     0.000000     0.000000     0.000000
 
 Subroutine IBZKPT returns following result:
 ===========================================
 
 Found      4 irreducible k-points:
 
 Following reciprocal coordinates:
            Coordinates               Weight
  0.250000  0.250000  0.250000      2.000000
 -0.250000  0.250000  0.250000      2.000000
  0.250000 -0.250000  0.250000      2.000000
 -0.250000 -0.250000  0.250000      2.000000
 
 Following cartesian coordinates:
            Coordinates               Weight
  0.025000  0.025000  0.025000      2.000000
 -0.025000  0.025000  0.025000      2.000000
  0.025000 -0.025000  0.025000      2.000000
 -0.025000 -0.025000  0.025000      2.000000
 


--------------------------------------------------------------------------------------------------------




 Dimension of arrays:
   k-points           NKPTS =      4   k-points in BZ     NKDIM =      4   number of bands    NBANDS=      8
   number of dos      NEDOS =    301   number of ions     NIONS =      5
   non local maximal  LDIM  =      4   non local SUM 2l+1 LMDIM =      8
   total plane-waves  NPLWV = 343000
   max r-space proj   IRMAX =      1   max aug-charges    IRDMAX=   4247
   dimension x,y,z NGX =    70 NGY =   70 NGZ =   70
   dimension x,y,z NGXF=   140 NGYF=  140 NGZF=  140
   support grid    NGXF=   140 NGYF=  140 NGZF=  140
   ions per type =               4   1
   NGX,Y,Z   is equivalent  to a cutoff of  11.64, 11.64, 11.64 a.u.
   NGXF,Y,Z  is equivalent  to a cutoff of  23.27, 23.27, 23.27 a.u.

 SYSTEM =  unknown system                          
 POSCAR =  H4 C1                                   

 Startparameter for this run:
   NWRITE =      2    write-flag & timer
   PREC   = a         normal or accurate (medium, high low for compatibility)
   ISTART =      0    job   : 0-new  1-cont  2-samecut
   ICHARG =      2    charge: 1-file 2-atom 10-const
   ISPIN  =      1    spin polarized calculation?
   LNONCOLLINEAR =      F non collinear calculations
   LSORBIT =      F    spin-orbit coupling
   INIWAV =      1    electr: 0-lowe 1-rand  2-diag
   LASPH  =      F    aspherical Exc in radial PAW
   METAGGA=      F    non-selfconsistent MetaGGA calc.

 Electronic Relaxation 1
   ENCUT  =  400.0 eV  29.40 Ry    5.42 a.u.  16.31 16.31 16.31*2*pi/ulx,y,z
   ENINI  =  400.0     initial cutoff
   ENAUG  =  644.9 eV  augmentation charge cutoff
   NELM   =    120;   NELMIN=  4; NELMDL= -5     # of ELM steps 
   EDIFF  = 0.1E-05   stopping-criterion for ELM
   LREAL  =      F    real-space projection
   NLSPLINE    = F    spline interpolate recip. space projectors
   LCOMPAT=      F    compatible to vasp.4.4
   GGA_COMPAT  = T    GGA compatible to vasp.4.4-vasp.4.6
   LMAXPAW     = -100 max onsite density
   LMAXMIX     =    2 max onsite mixed and CHGCAR
   VOSKOWN=      0    Vosko Wilk Nusair interpolation
   ROPT   =    0.00000   0.00000
 Ionic relaxation
   EDIFFG = 0.1E-04   stopping-criterion for IOM
   NSW    =     10    number of steps for IOM
   NBLOCK =      1;   KBLOCK =     10    inner block; outer block 
   IBRION =      0    ionic relax: 0-MD 1-quasi-New 2-CG
   NFREE  =      0    steps in history (QN), initial steepest desc. (CG)
   ISIF   =      2    stress and relaxation
   IWAVPR =     12    prediction:  0-non 1-charg 2-wave 3-comb
   ISYM   =      0    0-nonsym 1-usesym 2-fastsym
   LCORR  =      T    Harris-Foulkes like correction to forces

   POTIM  = 0.5000    time-step for ionic-motion
   TEIN   =    0.0    initial temperature
   TEBEG  =    0.0;   TEEND  =   0.0 temperature during run
   SMASS  =  -3.00    Nose mass-parameter (am)
   estimated Nose-frequenzy (Omega)   =  0.10E-29 period in steps =****** mass=  -0.229E-26a.u.
   SCALEE = 1.0000    scale energy and forces
   NPACO  =    256;   APACO  = 16.0  distance and # of slots for P.C.
   PSTRESS=    0.0 pullay stress

  Mass of Ions in am
   POMASS =   1.00 12.01
  Ionic Valenz
   ZVAL   =   1.00  4.00
  Atomic Wigner-Seitz radii
   RWIGS  =  -1.00 -1.00
  virtual crystal weights 
   VCA    =   1.00  1.00
   NELECT =       8.0000    total number of electrons
   NUPDOWN=      -1.0000    fix difference up-down

 DOS related values:
   EMIN   =  10.00;   EMAX   =-10.00  energy-range for DOS
   EFERMI =   0.00
   ISMEAR =     0;   SIGMA  =   0.20  broadening in eV -4-tet -1-fermi 0-gaus

 Electronic relaxation 2 (details)
   IALGO  =     68    algorithm
   LDIAG  =      T    sub-space diagonalisation (order eigenvalues)
   LSUBROT=      F    optimize rotation matrix (better conditioning)
   TURBO    =      0    0=normal 1=particle mesh
   IRESTART =      0    0=no restart 2=restart with 2 vectors
   NREBOOT  =      0    no. of reboots
   NMIN     =      0    reboot dimension
   EREF     =   0.00    reference energy to select bands
   IMIX   =      4    mixing-type and parameters
     AMIX     =   0.40;   BMIX     =  1.00
     AMIX_MAG =   1.60;   BMIX_MAG =  1.00
     AMIN     =   0.10
     WC   =   100.;   INIMIX=   1;  MIXPRE=   1;  MAXMIX= -45

 Intra band minimization:
   WEIMIN = 0.0010     energy-eigenvalue tresh-hold
   EBREAK =  0.31E-07  absolut break condition
   DEPER  =   0.30     relativ break condition  

   TIME   =   0.40     timestep for ELM

  volume/ion in A,a.u.               =     200.00      1349.67
  Fermi-wavevector in a.u.,A,eV,Ry     =   0.327420  0.618734  1.458594  0.107204
  Thomas-Fermi vector in A             =   1.220131
 
 Write flags
   LWAVE        =      F    write WAVECAR
   LDOWNSAMPLE  =      F    k-point downsampling of WAVECAR
   LCHARG       =      F    write CHGCAR
   LVTOT        =      F    write LOCPOT, total local potential
   LVHAR        =      F    write LOCPOT, Hartree potential only
   LELF         =      F    write electronic localiz. function (ELF)
   LORBIT       =      0    0 simple, 1 ext, 2 COOP (PROOUT), +10 PAW based schemes


 Dipole corrections
   LMONO  =      F    monopole corrections only (constant potential shift)
   LDIPOL =      F    correct potential (dipole corrections)
   IDIPOL =      0    1-x, 2-y, 3-z, 4-all directions 
   EPSILON=  1.0000000 bulk dielectric constant

 Exchange correlation treatment:
   GGA     =    --    GGA type
   LEXCH   =     8    internal setting for exchange type
   VOSKOWN=      0    Vosko Wilk Nusair interpolation
   LHFCALC =     F    Hartree Fock is set to
   LHFONE  =     F    Hartree Fock one center treatment
   AEXX    =    0.0000 exact exchange contribution

 Linear response parameters
   LEPSILON=     F    determine dielectric tensor
   LRPA    =     F    only Hartree local field effects (RPA)
   LNABLA  =     F    use nabla operator in PAW spheres
   LVEL    =     F    velocity operator in full k-point grid
   LINTERFAST=   F  fast interpolation
   KINTER  =     0    interpolate to denser k-point grid
   CSHIFT  =0.1000    complex shift for real part using Kramers Kronig
   OMEGAMAX=  -1.0    maximum frequency
   DEG_THRESHOLD= 0.2000000E-02 threshold for treating states as degnerate
   RTIME   =   -0.100 relaxation time in fs
  (WPLASMAI=    0.000 imaginary part of plasma frequency in eV, 0.658/RTIME)
   DFIELD  = 0.0000000 0.0000000 0.0000000 field for delta impulse in time
 
 Orbital magnetization related:
   ORBITALMAG=     F  switch on orbital magnetization
   LCHIMAG   =     F  perturbation theory with respect to B field
   DQ        =  0.001000  dq finite difference perturbation B field
   LLRAUG    =     F  two centre corrections for induced B field



--------------------------------------------------------------------------------------------------------


 molecular dynamics for ions
   using a microcanonical ensemble
 charge density and potential will be updated during run
 non-spin polarized calculation
 RMM-DIIS sequential band-by-band and
  variant of blocked Davidson during initial phase
 perform sub-space diagonalisation
    before iterative eigenvector-optimisation
 modified Broyden-mixing scheme, WC =      100.0
 initial mixing is a Kerker type mixing with AMIX =  0.4000 and BMIX =      1.0000
 Hartree-type preconditioning will be used
 using additional bands            4
 reciprocal scheme for non local part
 use partial core corrections
 calculate Harris-corrections to forces 
   (improved forces if not selfconsistent)
 use gradient corrections 
 use of overlap-Matrix (Vanderbilt PP)
 Gauss-broadening in eV      SIGMA  =   0.20


--------------------------------------------------------------------------------------------------------


  energy-cutoff  :      400.00
  volume of cell :     1000.00
      direct lattice vectors                 reciprocal lattice vectors
    10.000000000  0.000000000  0.000000000     0.100000000  0.000000000  0.000000000
     0.000000000 10.000000000  0.000000000     0.000000000  0.100000000  0.000000000
     0.000000000  0.000000000 10.000000000     0.000000000  0.000000000  0.100000000

  length of vectors
    10.000000000 10.000000000 10.000000000     0.100000000  0.100000000  0.100000000


 
 k-points in units of 2pi/SCALE and weight: read from INCAR                         
   0.02500000  0.02500000  0.02500000       0.250
  -0.02500000  0.02500000  0.02500000       0.250
   0.02500000 -0.02500000  0.02500000       0.250
  -0.02500000 -0.02500000  0.02500000       0.250
 
 k-points in reciprocal lattice and weights: read from INCAR                         
   0.25000000  0.25000000  0.25000000       0.250
  -0.25000000  0.25000000  0.25000000       0.250
   0.25000000 -0.25000000  0.25000000       0.250
  -0.25000000 -0.25000000  0.25000000       0.250
 
 position of ions in fractional coordinates (direct lattice) 
   0.53815400  0.40686100  0.36057300
   0.39454000  0.48032100  0.43846900
   0.55209200  0.56545000  0.44270900
   0.52818500  0.41641500  0.53918300
   0.50325100  0.46725500  0.44523200
 
 position of ions in cartesian coordinates  (Angst):
   5.38154000  4.06861000  3.60573000
   3.94540000  4.80321000  4.38469000
   5.52092000  5.65450000  4.42709000
   5.28185000  4.16415000  5.39183000
   5.03251000  4.67255000  4.45232000
 


--------------------------------------------------------------------------------------------------------


 k-point  1 :   0.2500 0.2500 0.2500  plane waves:   18127
 k-point  2 :  -0.2500 0.2500 0.2500  plane waves:   18127
 k-point  3 :   0.2500-0.2500 0.2500  plane waves:   18127
 k-point  4 :  -0.2500-0.2500 0.2500  plane waves:   18127

 maximum and minimum number of plane-waves per node :      4548     4508

 maximum number of plane-waves:     18127
 maximum index in each direction: 
   IXMAX=   16   IYMAX=   16   IZMAX=   16
   IXMIN=  -16   IYMIN=  -16   IZMIN=  -16


 parallel 3D FFT for wavefunctions:
    minimum data exchange during FFTs selected (reduces bandwidth)
 parallel 3D FFT for charge:
    minimum data exchange during FFTs selected (reduces bandwidth)


 total amount of memory used by VASP MPI-rank0    55370. kBytes
=======================================================================

   base      :      30000. kBytes
   nonl-proj :       2680. kBytes
   fftplans  :       8576. kBytes
   grid      :      13527. kBytes
   one-center:          6. kBytes
   wavefun   :        581. kBytes
 
     INWAV:  cpu time    0.0000: real time    0.0001
 Broyden mixing: mesh for mixing (old mesh)
   NGX = 33   NGY = 33   NGZ = 33
  (NGX  =140   NGY  =140   NGZ  =140)
  gives a total of  35937 points

 initial charge density was supplied:
 charge density of overlapping atoms calculated
 number of electron       8.0000000 magnetization 
 keeping initial charge density in first step


--------------------------------------------------------------------------------------------------------


 Maximum index for augmentation-charges          183 (set IRDMAX)


--------------------------------------------------------------------------------------------------------


 First call to EWALD:  gamma=   0.177
 Maximum number of real-space cells 3x 3x 3
 Maximum number of reciprocal cells 3x 3x 3

    FEWALD:  cpu time    0.0016: real time    0.0016


--------------------------------------- Iteration      1(   1)  ---------------------------------------


    POTLOK:  cpu time    0.1386: real time    0.1490
    SETDIJ:  cpu time    0.0031: real time    0.0035
     EDDAV:  cpu time    0.1964: real time    0.2187
       DOS:  cpu time    0.0003: real time    0.0010
    --------------------------------------------
      LOOP:  cpu time    0.3385: real time    0.3723

 eigenvalue-minimisations  :    96
 total energy-change (2. order) : 0.1394372E+02  (-0.2036951E+03)
 number of electron       8.0000000 magnetization 
 augmentation part        8.0000000 magnetization 

 Free energy of the ion-electron system (eV)
  ---------------------------------------------------
  alpha Z        PSCENC =         0.24225079
  Ewald energy   TEWEN  =       128.68319766
  -Hartree energ DENC   =      -243.96721208
  -exchange      EXHF   =         0.00000000
  -V(xc)+E(xc)   XCENC  =        22.00908997
  PAW double counting   =       117.05815612     -117.66307307
  entropy T*S    EENTRO =        -0.00000000
  eigenvalues    EBANDS =       -89.46043904
  atomic energy  EATOM  =       197.04175453
  Solvation  Ediel_sol  =         0.00000000
  ---------------------------------------------------
  free energy    TOTEN  =        13.94372489 eV

  energy without entropy =       13.94372489  energy(sigma->0) =       13.94372489


--------------------------------------------------------------------------------------------------------




--------------------------------------- Iteration      1(   2)  ---------------------------------------


     EDDAV:  cpu time    0.1444: real time    0.1467
       DOS:  cpu time    0.0003: real time    0.0003
    --------------------------------------------
      LOOP:  cpu time    0.1446: real time    0.1470

 eigenvalue-minimisations  :    64
 total energy-change (2. order) :-0.3692729E+02  (-0.3692729E+02)
 number of electron       8.0000000 magnetization 
 augmentation part        8.0000000 magnetization 

 Free energy of the ion-electron system (eV)
  ---------------------------------------------------
  alpha Z        PSCENC =         0.24225079
  Ewald energy   TEWEN  =       128.68319766
  -Hartree energ DENC   =      -243.96721208
  -exchange      EXHF   =         0.00000000
  -V(xc)+E(xc)   XCENC  =        22.00908997
  PAW double counting   =       117.05815612     -117.66307307
  entropy T*S    EENTRO =        -0.00000000
  eigenvalues    EBANDS =      -126.38772561
  atomic energy  EATOM  =       197.04175453
  Solvation  Ediel_sol  =         0.00000000
  ---------------------------------------------------
  free energy    TOTEN  =       -22.98356168 eV

  energy without entropy =      -22.98356168  energy(sigma->0) =      -22.98356168


--------------------------------------------------------------------------------------------------------




--------------------------------------- Iteration      1(   3)  ---------------------------------------


     EDDAV:  cpu time    0.1433: real time    0.1459
       DOS:  cpu time    0.0002: real time    0.0002
    --------------------------------------------
      LOOP:  cpu time    0.1435: real time    0.1461

 eigenvalue-minimisations  :    64
 total energy-change (2. order) :-0.4391681E+01  (-0.4391681E+01)
 number of electron       8.0000000 magnetization 
 augmentation part        8.0000000 magnetization 

 Free energy of the ion-electron system (eV)
  ---------------------------------------------------
  alpha Z        PSCENC =         0.24225079
  Ewald energy   TEWEN  =       128.68319766
  -Hartree energ DENC   =      -243.96721208
  -exchange      EXHF   =         0.00000000
  -V(xc)+E(xc)   XCENC  =        22.00908997
  PAW double counting   =       117.05815612     -117.66307307
  entropy T*S    EENTRO =        -0.00000000
  eigenvalues    EBANDS =      -130.77940709
  atomic energy  EATOM  =       197.04175453
  Solvation  Ediel_sol  =         0.00000000
  ---------------------------------------------------
  free energy    TOTEN  =       -27.37524316 eV

  energy without entropy =      -27.37524316  energy(sigma->0) =      -27.37524316


--------------------------------------------------------------------------------------------------------




--------------------------------------- Iteration      1(   4)  ---------------------------------------


     EDDAV:  cpu time    0.2428: real time    0.2490
       DOS:  cpu time    0.0003: real time    0.0003
    --------------------------------------------
      LOOP:  cpu time    0.2431: real time    0.2492

 eigenvalue-minimisations  :   128
 total energy-change (2. order) :-0.1798234E+00  (-0.1798234E+00)
 number of electron       8.0000000 magnetization 
 augmentation part        8.0000000 magnetization 

 Free energy of the ion-electron system (eV)
  ---------------------------------------------------
  alpha Z        PSCENC =         0.24225079
  Ewald energy   TEWEN  =       128.68319766
  -Hartree energ DENC   =      -243.96721208
  -exchange      EXHF   =         0.00000000
  -V(xc)+E(xc)   XCENC  =        22.00908997
  PAW double counting   =       117.05815612     -117.66307307
  entropy T*S    EENTRO =        -0.00000000
  eigenvalues    EBANDS =      -130.95923044
  atomic energy  EATOM  =       197.04175453
  Solvation  Ediel_sol  =         0.00000000
  ---------------------------------------------------
  free energy    TOTEN  =       -27.55506651 eV

  energy without entropy =      -27.55506651  energy(sigma->0) =      -27.55506651


--------------------------------------------------------------------------------------------------------




--------------------------------------- Iteration      1(   5)  ---------------------------------------


     EDDAV:  cpu time    0.1815: real time    0.1841
       DOS:  cpu time    0.0002: real time    0.0002
    CHARGE:  cpu time    0.0203: real time    0.0207
    MIXING:  cpu time    0.0040: real time    0.0042
    --------------------------------------------
      LOOP:  cpu time    0.2061: real time    0.2092

 eigenvalue-minimisations  :    88
 total energy-change (2. order) :-0.5743733E-04  (-0.5743738E-04)
 number of electron       8.0000002 magnetization 
 augmentation part        0.2251618 magnetization 

 Broyden mixing:
  rms(total) = 0.87127E+00    rms(broyden)= 0.87108E+00
  rms(prec ) = 0.12426E+01
  weight for this iteration     100.00

 Free energy of the ion-electron system (eV)
  ---------------------------------------------------
  alpha Z        PSCENC =         0.24225079
  Ewald energy   TEWEN  =       128.68319766
  -Hartree energ DENC   =      -243.96721208
  -exchange      EXHF   =         0.00000000
  -V(xc)+E(xc)   XCENC  =        22.00908997
  PAW double counting   =       117.05815612     -117.66307307
  entropy T*S    EENTRO =        -0.00000000
  eigenvalues    EBANDS =      -130.95928788
  atomic energy  EATOM  =       197.04175453
  Solvation  Ediel_sol  =         0.00000000
  ---------------------------------------------------
  free energy    TOTEN  =       -27.55512394 eV

  energy without entropy =      -27.55512394  energy(sigma->0) =      -27.55512394


--------------------------------------------------------------------------------------------------------




--------------------------------------- Iteration      1(   6)  ---------------------------------------


    POTLOK:  cpu time    0.1340: real time    0.1355
    SETDIJ:  cpu time    0.0016: real time    0.0016
    EDDIAG:  cpu time    0.0417: real time    0.0513
  RMM-DIIS:  cpu time    0.1635: real time    0.1661
    ORTHCH:  cpu time    0.0018: real time    0.0018
       DOS:  cpu time    0.0002: real time    0.0002
    CHARGE:  cpu time    0.0184: real time    0.0189
    MIXING:  cpu time    0.0044: real time    0.0059
    --------------------------------------------
      LOOP:  cpu time    0.3657: real time    0.3815

 eigenvalue-minimisations  :    64
 total energy-change (2. order) : 0.2889754E+01  (-0.5384258E+00)
 number of electron       8.0000001 magnetization 
 augmentation part        0.1984957 magnetization 

 Broyden mixing:
  rms(total) = 0.42912E+00    rms(broyden)= 0.42904E+00
  rms(prec ) = 0.56008E+00
  weight for this iteration     100.00

 eigenvalues of (default mixing * dielectric matrix)
  average eigenvalue GAMMA=   1.3064
  1.3064

 Free energy of the ion-electron system (eV)
  ---------------------------------------------------
  alpha Z        PSCENC =         0.24225079
  Ewald energy   TEWEN  =       128.68319766
  -Hartree energ DENC   =      -263.68599631
  -exchange      EXHF   =         0.00000000
  -V(xc)+E(xc)   XCENC  =        23.20596385
  PAW double counting   =       238.30688295     -239.08639271
  entropy T*S    EENTRO =        -0.00000000
  eigenvalues    EBANDS =      -109.37303050
  atomic energy  EATOM  =       197.04175453
  Solvation  Ediel_sol  =         0.00000000
  ---------------------------------------------------
  free energy    TOTEN  =       -24.66536972 eV

  energy without entropy =      -24.66536972  energy(sigma->0) =      -24.66536972


--------------------------------------------------------------------------------------------------------




--------------------------------------- Iteration      1(   7)  ---------------------------------------


    POTLOK:  cpu time    0.1335: real time    0.1355
    SETDIJ:  cpu time    0.0017: real time    0.0017
    EDDIAG:  cpu time    0.0380: real time    0.0388
  RMM-DIIS:  cpu time    0.1624: real time    0.1650
    ORTHCH:  cpu time    0.0014: real time    0.0014
       DOS:  cpu time    0.0002: real time    0.0002
    CHARGE:  cpu time    0.0178: real time    0.0179
    MIXING:  cpu time    0.0042: real time    0.0042
    --------------------------------------------
      LOOP:  cpu time    0.3591: real time    0.3648

 eigenvalue-minimisations  :    64
 total energy-change (2. order) : 0.4927051E+00  (-0.1224516E+00)
 number of electron       8.0000001 magnetization 
 augmentation part        0.1879781 magnetization 

 Broyden mixing:
  rms(total) = 0.22791E+00    rms(broyden)= 0.22786E+00
  rms(prec ) = 0.27666E+00
  weight for this iteration     100.00

 eigenvalues of (default mixing * dielectric matrix)
  average eigenvalue GAMMA=   1.8435
  1.4591  2.2279

 Free energy of the ion-electron system (eV)
  ---------------------------------------------------
  alpha Z        PSCENC =         0.24225079
  Ewald energy   TEWEN  =       128.68319766
  -Hartree energ DENC   =      -275.38148048
  -exchange      EXHF   =         0.00000000
  -V(xc)+E(xc)   XCENC  =        24.06518971
  PAW double counting   =       365.11455778     -365.93344352
  entropy T*S    EENTRO =        -0.00000000
  eigenvalues    EBANDS =       -98.00469113
  atomic energy  EATOM  =       197.04175453
  Solvation  Ediel_sol  =         0.00000000
  ---------------------------------------------------
  free energy    TOTEN  =       -24.17266466 eV

  energy without entropy =      -24.17266466  energy(sigma->0) =      -24.17266466


--------------------------------------------------------------------------------------------------------




--------------------------------------- Iteration      1(   8)  ---------------------------------------


    POTLOK:  cpu time    0.1343: real time    0.1364
    SETDIJ:  cpu time    0.0017: real time    0.0017
    EDDIAG:  cpu time    0.0376: real time    0.0380
  RMM-DIIS:  cpu time    0.1632: real time    0.1662
    ORTHCH:  cpu time    0.0014: real time    0.0014
       DOS:  cpu time    0.0002: real time    0.0003
    CHARGE:  cpu time    0.0179: real time    0.0182
    MIXING:  cpu time    0.0043: real time    0.0044
    --------------------------------------------
      LOOP:  cpu time    0.3606: real time    0.3665

 eigenvalue-minimisations  :    64
 total energy-change (2. order) : 0.1462018E+00  (-0.1614718E-01)
 number of electron       8.0000001 magnetization 
 augmentation part        0.1866048 magnetization 

 Broyden mixing:
  rms(total) = 0.22576E-01    rms(broyden)= 0.22555E-01
  rms(prec ) = 0.53146E-01
  weight for this iteration     100.00

 eigenvalues of (default mixing * dielectric matrix)
  average eigenvalue GAMMA=   1.5486
  2.2487  0.9876  1.4095

 Free energy of the ion-electron system (eV)
  ---------------------------------------------------
  alpha Z        PSCENC =         0.24225079
  Ewald energy   TEWEN  =       128.68319766
  -Hartree energ DENC   =      -280.76745730
  -exchange      EXHF   =         0.00000000
  -V(xc)+E(xc)   XCENC  =        24.60011320
  PAW double counting   =       473.95352780     -474.74025442
  entropy T*S    EENTRO =        -0.00000000
  eigenvalues    EBANDS =       -93.03959517
  atomic energy  EATOM  =       197.04175453
  Solvation  Ediel_sol  =         0.00000000
  ---------------------------------------------------
  free energy    TOTEN  =       -24.02646290 eV

  energy without entropy =      -24.02646290  energy(sigma->0) =      -24.02646290


--------------------------------------------------------------------------------------------------------




--------------------------------------- Iteration      1(   9)  ---------------------------------------


    POTLOK:  cpu time    0.1334: real time    0.1350
    SETDIJ:  cpu time    0.0019: real time    0.0019
    EDDIAG:  cpu time    0.0376: real time    0.0381
  RMM-DIIS:  cpu time    0.1649: real time    0.1669
    ORTHCH:  cpu time    0.0015: real time    0.0015
       DOS:  cpu time    0.0002: real time    0.0002
    CHARGE:  cpu time    0.0174: real time    0.0176
    MIXING:  cpu time    0.0047: real time    0.0048
    --------------------------------------------
      LOOP:  cpu time    0.3616: real time    0.3660

 eigenvalue-minimisations  :    64
 total energy-change (2. order) : 0.5660750E-02  (-0.1103014E-02)
 number of electron       8.0000001 magnetization 
 augmentation part        0.1860407 magnetization 

 Broyden mixing:
  rms(total) = 0.19608E-01    rms(broyden)= 0.19605E-01
  rms(prec ) = 0.40787E-01
  weight for this iteration     100.00

 eigenvalues of (default mixing * dielectric matrix)
  average eigenvalue GAMMA=   2.1032
  3.1623  2.8718  1.0011  1.3776

 Free energy of the ion-electron system (eV)
  ---------------------------------------------------
  alpha Z        PSCENC =         0.24225079
  Ewald energy   TEWEN  =       128.68319766
  -Hartree energ DENC   =      -282.02666217
  -exchange      EXHF   =         0.00000000
  -V(xc)+E(xc)   XCENC  =        24.66975490
  PAW double counting   =       477.31959147     -478.10899181
  entropy T*S    EENTRO =        -0.00000000
  eigenvalues    EBANDS =       -91.84169753
  atomic energy  EATOM  =       197.04175453
  Solvation  Ediel_sol  =         0.00000000
  ---------------------------------------------------
  free energy    TOTEN  =       -24.02080215 eV

  energy without entropy =      -24.02080215  energy(sigma->0) =      -24.02080215


--------------------------------------------------------------------------------------------------------




--------------------------------------- Iteration      1(  10)  ---------------------------------------


    POTLOK:  cpu time    0.1288: real time    0.1306
    SETDIJ:  cpu time    0.0016: real time    0.0016
    EDDIAG:  cpu time    0.0377: real time    0.0380
  RMM-DIIS:  cpu time    0.1676: real time    0.1692
    ORTHCH:  cpu time    0.0014: real time    0.0014
       DOS:  cpu time    0.0002: real time    0.0002
    CHARGE:  cpu time    0.0175: real time    0.0177
    MIXING:  cpu time    0.0049: real time    0.0057
    --------------------------------------------
      LOOP:  cpu time    0.3596: real time    0.3645

 eigenvalue-minimisations  :    64
 total energy-change (2. order) : 0.6129567E-02  (-0.2473307E-02)
 number of electron       8.0000001 magnetization 
 augmentation part        0.1849890 magnetization 

 Broyden mixing:
  rms(total) = 0.28077E-01    rms(broyden)= 0.28076E-01
  rms(prec ) = 0.35879E-01
  weight for this iteration     100.00

 eigenvalues of (default mixing * dielectric matrix)
  average eigenvalue GAMMA=   1.7825
  3.0843  2.4419  1.2048  1.2048  0.9768

 Free energy of the ion-electron system (eV)
  ---------------------------------------------------
  alpha Z        PSCENC =         0.24225079
  Ewald energy   TEWEN  =       128.68319766
  -Hartree energ DENC   =      -284.23311710
  -exchange      EXHF   =         0.00000000
  -V(xc)+E(xc)   XCENC  =        24.74008780
  PAW double counting   =       461.21848000     -462.01151297
  entropy T*S    EENTRO =        -0.00000000
  eigenvalues    EBANDS =       -89.69581330
  atomic energy  EATOM  =       197.04175453
  Solvation  Ediel_sol  =         0.00000000
  ---------------------------------------------------
  free energy    TOTEN  =       -24.01467259 eV

  energy without entropy =      -24.01467259  energy(sigma->0) =      -24.01467259


--------------------------------------------------------------------------------------------------------




--------------------------------------- Iteration      1(  11)  ---------------------------------------


    POTLOK:  cpu time    0.1292: real time    0.1330
    SETDIJ:  cpu time    0.0019: real time    0.0019
    EDDIAG:  cpu time    0.0375: real time    0.0387
  RMM-DIIS:  cpu time    0.1434: real time    0.1479
    ORTHCH:  cpu time    0.0013: real time    0.0014
       DOS:  cpu time    0.0002: real time    0.0002
    CHARGE:  cpu time    0.0187: real time    0.0191
    MIXING:  cpu time    0.0046: real time    0.0047
    --------------------------------------------
      LOOP:  cpu time    0.3368: real time    0.3469

 eigenvalue-minimisations  :    64
 total energy-change (2. order) :-0.6011126E-03  (-0.7657740E-03)
 number of electron       8.0000001 magnetization 
 augmentation part        0.1853428 magnetization 

 Broyden mixing:
  rms(total) = 0.74449E-02    rms(broyden)= 0.74419E-02
  rms(prec ) = 0.13588E-01
  weight for this iteration     100.00

 eigenvalues of (default mixing * dielectric matrix)
  average eigenvalue GAMMA=   2.2963
  4.9253  3.1138  2.4317  1.2891  1.0088  1.0088

 Free energy of the ion-electron system (eV)
  ---------------------------------------------------
  alpha Z        PSCENC =         0.24225079
  Ewald energy   TEWEN  =       128.68319766
  -Hartree energ DENC   =      -284.11922694
  -exchange      EXHF   =         0.00000000
  -V(xc)+E(xc)   XCENC  =        24.75355654
  PAW double counting   =       470.26784498     -471.05348190
  entropy T*S    EENTRO =        -0.00000000
  eigenvalues    EBANDS =       -89.83116936
  atomic energy  EATOM  =       197.04175453
  Solvation  Ediel_sol  =         0.00000000
  ---------------------------------------------------
  free energy    TOTEN  =       -24.01527370 eV

  energy without entropy =      -24.01527370  energy(sigma->0) =      -24.01527370


--------------------------------------------------------------------------------------------------------




--------------------------------------- Iteration      1(  12)  ---------------------------------------


    POTLOK:  cpu time    0.1223: real time    0.1260
    SETDIJ:  cpu time    0.0015: real time    0.0016
    EDDIAG:  cpu time    0.0365: real time    0.0379
  RMM-DIIS:  cpu time    0.1458: real time    0.1504
    ORTHCH:  cpu time    0.0014: real time    0.0014
       DOS:  cpu time    0.0002: real time    0.0002
    CHARGE:  cpu time    0.0175: real time    0.0180
    MIXING:  cpu time    0.0048: real time    0.0049
    --------------------------------------------
      LOOP:  cpu time    0.3300: real time    0.3405

 eigenvalue-minimisations  :    64
 total energy-change (2. order) :-0.9857641E-02  (-0.4073031E-03)
 number of electron       8.0000001 magnetization 
 augmentation part        0.1855941 magnetization 

 Broyden mixing:
  rms(total) = 0.13031E-01    rms(broyden)= 0.13029E-01
  rms(prec ) = 0.17060E-01
  weight for this iteration     100.00

 eigenvalues of (default mixing * dielectric matrix)
  average eigenvalue GAMMA=   2.0264
  4.8741  2.9632  2.4370  1.2487  0.9995  0.9995  0.6625

 Free energy of the ion-electron system (eV)
  ---------------------------------------------------
  alpha Z        PSCENC =         0.24225079
  Ewald energy   TEWEN  =       128.68319766
  -Hartree energ DENC   =      -284.30408003
  -exchange      EXHF   =         0.00000000
  -V(xc)+E(xc)   XCENC  =        24.74517337
  PAW double counting   =       467.62065207     -468.40477967
  entropy T*S    EENTRO =        -0.00000000
  eigenvalues    EBANDS =       -89.64930006
  atomic energy  EATOM  =       197.04175453
  Solvation  Ediel_sol  =         0.00000000
  ---------------------------------------------------
  free energy    TOTEN  =       -24.02513134 eV

  energy without entropy =      -24.02513134  energy(sigma->0) =      -24.02513134


--------------------------------------------------------------------------------------------------------




--------------------------------------- Iteration      1(  13)  ---------------------------------------


    POTLOK:  cpu time    0.1313: real time    0.1349
    SETDIJ:  cpu time    0.0017: real time    0.0017
    EDDIAG:  cpu time    0.0368: real time    0.0381
  RMM-DIIS:  cpu time    0.1487: real time    0.1536
    ORTHCH:  cpu time    0.0017: real time    0.0017
       DOS:  cpu time    0.0002: real time    0.0002
    CHARGE:  cpu time    0.0185: real time    0.0189
    MIXING:  cpu time    0.0050: real time    0.0051
    --------------------------------------------
      LOOP:  cpu time    0.3437: real time    0.3542

 eigenvalue-minimisations  :    64
 total energy-change (2. order) :-0.3999660E-03  (-0.8641309E-04)
 number of electron       8.0000001 magnetization 
 augmentation part        0.1853719 magnetization 

 Broyden mixing:
  rms(total) = 0.59431E-02    rms(broyden)= 0.59430E-02
  rms(prec ) = 0.78791E-02
  weight for this iteration     100.00

 eigenvalues of (default mixing * dielectric matrix)
  average eigenvalue GAMMA=   2.4750
  6.3202  4.2283  2.5814  2.3869  1.2077  1.2077  1.0025  0.8654

 Free energy of the ion-electron system (eV)
  ---------------------------------------------------
  alpha Z        PSCENC =         0.24225079
  Ewald energy   TEWEN  =       128.68319766
  -Hartree energ DENC   =      -284.48760700
  -exchange      EXHF   =         0.00000000
  -V(xc)+E(xc)   XCENC  =        24.75064885
  PAW double counting   =       467.47189540     -468.25836053
  entropy T*S    EENTRO =        -0.00000000
  eigenvalues    EBANDS =       -89.46931101
  atomic energy  EATOM  =       197.04175453
  Solvation  Ediel_sol  =         0.00000000
  ---------------------------------------------------
  free energy    TOTEN  =       -24.02553131 eV

  energy without entropy =      -24.02553131  energy(sigma->0) =      -24.02553131


--------------------------------------------------------------------------------------------------------




--------------------------------------- Iteration      1(  14)  ---------------------------------------


    POTLOK:  cpu time    0.1196: real time    0.1228
    SETDIJ:  cpu time    0.0018: real time    0.0018
    EDDIAG:  cpu time    0.0370: real time    0.0380
  RMM-DIIS:  cpu time    0.1454: real time    0.1503
    ORTHCH:  cpu time    0.0015: real time    0.0015
       DOS:  cpu time    0.0002: real time    0.0002
    CHARGE:  cpu time    0.0174: real time    0.0181
    MIXING:  cpu time    0.0051: real time    0.0053
    --------------------------------------------
      LOOP:  cpu time    0.3281: real time    0.3381

 eigenvalue-minimisations  :    64
 total energy-change (2. order) :-0.2848745E-02  (-0.2078921E-03)
 number of electron       8.0000001 magnetization 
 augmentation part        0.1851605 magnetization 

 Broyden mixing:
  rms(total) = 0.47670E-02    rms(broyden)= 0.47652E-02
  rms(prec ) = 0.61832E-02
  weight for this iteration     100.00

 eigenvalues of (default mixing * dielectric matrix)
  average eigenvalue GAMMA=   2.3497
  6.6015  4.2360  2.5061  2.4632  1.1613  1.1613  1.1006  0.9589  0.9589

 Free energy of the ion-electron system (eV)
  ---------------------------------------------------
  alpha Z        PSCENC =         0.24225079
  Ewald energy   TEWEN  =       128.68319766
  -Hartree energ DENC   =      -284.54008385
  -exchange      EXHF   =         0.00000000
  -V(xc)+E(xc)   XCENC  =        24.74232313
  PAW double counting   =       466.45974494     -467.24837021
  entropy T*S    EENTRO =        -0.00000000
  eigenvalues    EBANDS =       -89.40919704
  atomic energy  EATOM  =       197.04175453
  Solvation  Ediel_sol  =         0.00000000
  ---------------------------------------------------
  free energy    TOTEN  =       -24.02838005 eV

  energy without entropy =      -24.02838005  energy(sigma->0) =      -24.02838005


--------------------------------------------------------------------------------------------------------




--------------------------------------- Iteration      1(  15)  ---------------------------------------


    POTLOK:  cpu time    0.1182: real time    0.1218
    SETDIJ:  cpu time    0.0018: real time    0.0018
    EDDIAG:  cpu time    0.0879: real time    0.0896
  RMM-DIIS:  cpu time    0.1523: real time    0.1563
    ORTHCH:  cpu time    0.0018: real time    0.0018
       DOS:  cpu time    0.0002: real time    0.0002
    CHARGE:  cpu time    0.0177: real time    0.0182
    MIXING:  cpu time    0.0053: real time    0.0054
    --------------------------------------------
      LOOP:  cpu time    0.3852: real time    0.3952

 eigenvalue-minimisations  :    64
 total energy-change (2. order) :-0.1696835E-03  (-0.1297040E-04)
 number of electron       8.0000001 magnetization 
 augmentation part        0.1851678 magnetization 

 Broyden mixing:
  rms(total) = 0.17560E-02    rms(broyden)= 0.17559E-02
  rms(prec ) = 0.22626E-02
  weight for this iteration     100.00

 eigenvalues of (default mixing * dielectric matrix)
  average eigenvalue GAMMA=   2.6131
  7.7264  5.0784  3.1507  2.5503  2.1450  1.2822  1.2822  1.0321  0.9906  0.8935

 Free energy of the ion-electron system (eV)
  ---------------------------------------------------
  alpha Z        PSCENC =         0.24225079
  Ewald energy   TEWEN  =       128.68319766
  -Hartree energ DENC   =      -284.47011354
  -exchange      EXHF   =         0.00000000
  -V(xc)+E(xc)   XCENC  =        24.73979355
  PAW double counting   =       466.64681580     -467.43426238
  entropy T*S    EENTRO =        -0.00000000
  eigenvalues    EBANDS =       -89.47798615
  atomic energy  EATOM  =       197.04175453
  Solvation  Ediel_sol  =         0.00000000
  ---------------------------------------------------
  free energy    TOTEN  =       -24.02854974 eV

  energy without entropy =      -24.02854974  energy(sigma->0) =      -24.02854974


--------------------------------------------------------------------------------------------------------




--------------------------------------- Iteration      1(  16)  ---------------------------------------


    POTLOK:  cpu time    0.1222: real time    0.1258
    SETDIJ:  cpu time    0.0016: real time    0.0017
    EDDIAG:  cpu time    0.0372: real time    0.0382
  RMM-DIIS:  cpu time    0.1466: real time    0.1518
    ORTHCH:  cpu time    0.0014: real time    0.0014
       DOS:  cpu time    0.0001: real time    0.0001
    CHARGE:  cpu time    0.0177: real time    0.0189
    MIXING:  cpu time    0.0054: real time    0.0055
    --------------------------------------------
      LOOP:  cpu time    0.3322: real time    0.3434

 eigenvalue-minimisations  :    64
 total energy-change (2. order) :-0.2147917E-03  (-0.2376014E-04)
 number of electron       8.0000001 magnetization 
 augmentation part        0.1852666 magnetization 

 Broyden mixing:
  rms(total) = 0.18445E-02    rms(broyden)= 0.18438E-02
  rms(prec ) = 0.24453E-02
  weight for this iteration     100.00

 eigenvalues of (default mixing * dielectric matrix)
  average eigenvalue GAMMA=   2.5529
  8.0165  4.9408  3.8865  2.4177  2.4177  0.8926  0.9872  1.1771  1.1771  1.0846
  1.0846

 Free energy of the ion-electron system (eV)
  ---------------------------------------------------
  alpha Z        PSCENC =         0.24225079
  Ewald energy   TEWEN  =       128.68319766
  -Hartree energ DENC   =      -284.43521056
  -exchange      EXHF   =         0.00000000
  -V(xc)+E(xc)   XCENC  =        24.73943276
  PAW double counting   =       466.79200143     -467.57863881
  entropy T*S    EENTRO =        -0.00000000
  eigenvalues    EBANDS =       -89.51355233
  atomic energy  EATOM  =       197.04175453
  Solvation  Ediel_sol  =         0.00000000
  ---------------------------------------------------
  free energy    TOTEN  =       -24.02876453 eV

  energy without entropy =      -24.02876453  energy(sigma->0) =      -24.02876453


--------------------------------------------------------------------------------------------------------




--------------------------------------- Iteration      1(  17)  ---------------------------------------


    POTLOK:  cpu time    0.1206: real time    0.1240
    SETDIJ:  cpu time    0.0018: real time    0.0018
    EDDIAG:  cpu time    0.0396: real time    0.0447
  RMM-DIIS:  cpu time    0.1495: real time    0.1549
    ORTHCH:  cpu time    0.0015: real time    0.0016
       DOS:  cpu time    0.0002: real time    0.0002
    CHARGE:  cpu time    0.0185: real time    0.0191
    MIXING:  cpu time    0.0056: real time    0.0057
    --------------------------------------------
      LOOP:  cpu time    0.3373: real time    0.3521

 eigenvalue-minimisations  :    64
 total energy-change (2. order) :-0.6203296E-05  (-0.3111572E-05)
 number of electron       8.0000001 magnetization 
 augmentation part        0.1852318 magnetization 

 Broyden mixing:
  rms(total) = 0.64078E-03    rms(broyden)= 0.64077E-03
  rms(prec ) = 0.79168E-03
  weight for this iteration     100.00

 eigenvalues of (default mixing * dielectric matrix)
  average eigenvalue GAMMA=   2.6138
  8.4385  5.1455  4.1237  2.7773  2.4477  1.9413  1.3244  1.3244  1.0198  1.0198
  0.9285  0.8743

 Free energy of the ion-electron system (eV)
  ---------------------------------------------------
  alpha Z        PSCENC =         0.24225079
  Ewald energy   TEWEN  =       128.68319766
  -Hartree energ DENC   =      -284.48124646
  -exchange      EXHF   =         0.00000000
  -V(xc)+E(xc)   XCENC  =        24.74156371
  PAW double counting   =       466.80093683     -467.58801326
  entropy T*S    EENTRO =        -0.00000000
  eigenvalues    EBANDS =       -89.46921453
  atomic energy  EATOM  =       197.04175453
  Solvation  Ediel_sol  =         0.00000000
  ---------------------------------------------------
  free energy    TOTEN  =       -24.02877073 eV

  energy without entropy =      -24.02877073  energy(sigma->0) =      -24.02877073


--------------------------------------------------------------------------------------------------------




--------------------------------------- Iteration      1(  18)  ---------------------------------------


    POTLOK:  cpu time    0.1246: real time    0.1297
    SETDIJ:  cpu time    0.0017: real time    0.0017
    EDDIAG:  cpu time    0.0376: real time    0.0391
  RMM-DIIS:  cpu time    0.1466: real time    0.1525
    ORTHCH:  cpu time    0.0014: real time    0.0014
       DOS:  cpu time    0.0002: real time    0.0002
    CHARGE:  cpu time    0.0173: real time    0.0180
    MIXING:  cpu time    0.0057: real time    0.0058
    --------------------------------------------
      LOOP:  cpu time    0.3351: real time    0.3484

 eigenvalue-minimisations  :    64
 total energy-change (2. order) :-0.1664224E-04  (-0.1846495E-05)
 number of electron       8.0000001 magnetization 
 augmentation part        0.1851999 magnetization 

 Broyden mixing:
  rms(total) = 0.34256E-03    rms(broyden)= 0.34220E-03
  rms(prec ) = 0.45597E-03
  weight for this iteration     100.00

 eigenvalues of (default mixing * dielectric matrix)
  average eigenvalue GAMMA=   2.5521
  8.4837  5.3404  3.8739  3.1778  2.4888  2.2535  1.2185  1.2185  1.1450  1.1450
  0.8916  0.9561  0.9852

 Free energy of the ion-electron system (eV)
  ---------------------------------------------------
  alpha Z        PSCENC =         0.24225079
  Ewald energy   TEWEN  =       128.68319766
  -Hartree energ DENC   =      -284.48779101
  -exchange      EXHF   =         0.00000000
  -V(xc)+E(xc)   XCENC  =        24.74135990
  PAW double counting   =       466.63958386     -467.42686975
  entropy T*S    EENTRO =        -0.00000000
  eigenvalues    EBANDS =       -89.46227335
  atomic energy  EATOM  =       197.04175453
  Solvation  Ediel_sol  =         0.00000000
  ---------------------------------------------------
  free energy    TOTEN  =       -24.02878737 eV

  energy without entropy =      -24.02878737  energy(sigma->0) =      -24.02878737


--------------------------------------------------------------------------------------------------------




--------------------------------------- Iteration      1(  19)  ---------------------------------------


    POTLOK:  cpu time    0.1241: real time    0.1283
    SETDIJ:  cpu time    0.0018: real time    0.0024
    EDDIAG:  cpu time    0.0362: real time    0.0375
  RMM-DIIS:  cpu time    0.1169: real time    0.1218
    ORTHCH:  cpu time    0.0015: real time    0.0015
       DOS:  cpu time    0.0002: real time    0.0003
    CHARGE:  cpu time    0.0171: real time    0.0177
    MIXING:  cpu time    0.0060: real time    0.0061
    --------------------------------------------
      LOOP:  cpu time    0.3038: real time    0.3157

 eigenvalue-minimisations  :    48
 total energy-change (2. order) :-0.1381609E-05  (-0.4279782E-07)
 number of electron       8.0000001 magnetization 
 augmentation part        0.1851998 magnetization 

 Broyden mixing:
  rms(total) = 0.31064E-03    rms(broyden)= 0.31062E-03
  rms(prec ) = 0.40695E-03
  weight for this iteration     100.00

 eigenvalues of (default mixing * dielectric matrix)
  average eigenvalue GAMMA=   2.5774
  8.4930  5.4824  4.1198  3.4698  2.6408  2.2872  2.0211  1.3269  1.3269  1.0609
  1.0609  0.8849  0.9546  0.9546

 Free energy of the ion-electron system (eV)
  ---------------------------------------------------
  alpha Z        PSCENC =         0.24225079
  Ewald energy   TEWEN  =       128.68319766
  -Hartree energ DENC   =      -284.48424814
  -exchange      EXHF   =         0.00000000
  -V(xc)+E(xc)   XCENC  =        24.74115969
  PAW double counting   =       466.63814398     -467.42539614
  entropy T*S    EENTRO =        -0.00000000
  eigenvalues    EBANDS =       -89.46565114
  atomic energy  EATOM  =       197.04175453
  Solvation  Ediel_sol  =         0.00000000
  ---------------------------------------------------
  free energy    TOTEN  =       -24.02878875 eV

  energy without entropy =      -24.02878875  energy(sigma->0) =      -24.02878875


--------------------------------------------------------------------------------------------------------




--------------------------------------- Iteration      1(  20)  ---------------------------------------


    POTLOK:  cpu time    0.1272: real time    0.1311
    SETDIJ:  cpu time    0.0015: real time    0.0016
    EDDIAG:  cpu time    0.0357: real time    0.0370
  RMM-DIIS:  cpu time    0.1150: real time    0.1193
    ORTHCH:  cpu time    0.0013: real time    0.0014
       DOS:  cpu time    0.0002: real time    0.0002
    CHARGE:  cpu time    0.0170: real time    0.0177
    MIXING:  cpu time    0.0064: real time    0.0065
    --------------------------------------------
      LOOP:  cpu time    0.3044: real time    0.3149

 eigenvalue-minimisations  :    48
 total energy-change (2. order) :-0.1298110E-05  (-0.1822467E-06)
 number of electron       8.0000001 magnetization 
 augmentation part        0.1852074 magnetization 

 Broyden mixing:
  rms(total) = 0.17948E-04    rms(broyden)= 0.17872E-04
  rms(prec ) = 0.25393E-04
  weight for this iteration     100.00

 eigenvalues of (default mixing * dielectric matrix)
  average eigenvalue GAMMA=   2.5056
  8.4675  5.7171  3.9754  3.9754  2.5241  2.5241  2.0023  1.3206  1.3206  0.8644
  1.0245  0.9696  0.9696  0.9640  0.9640

 Free energy of the ion-electron system (eV)
  ---------------------------------------------------
  alpha Z        PSCENC =         0.24225079
  Ewald energy   TEWEN  =       128.68319766
  -Hartree energ DENC   =      -284.47668900
  -exchange      EXHF   =         0.00000000
  -V(xc)+E(xc)   XCENC  =        24.74088526
  PAW double counting   =       466.67763876     -467.46477669
  entropy T*S    EENTRO =        -0.00000000
  eigenvalues    EBANDS =       -89.47305137
  atomic energy  EATOM  =       197.04175453
  Solvation  Ediel_sol  =         0.00000000
  ---------------------------------------------------
  free energy    TOTEN  =       -24.02879005 eV

  energy without entropy =      -24.02879005  energy(sigma->0) =      -24.02879005


--------------------------------------------------------------------------------------------------------




--------------------------------------- Iteration      1(  21)  ---------------------------------------


    POTLOK:  cpu time    0.1286: real time    0.1331
    SETDIJ:  cpu time    0.0019: real time    0.0019
    EDDIAG:  cpu time    0.0367: real time    0.0381
  RMM-DIIS:  cpu time    0.1162: real time    0.1201
    ORTHCH:  cpu time    0.0016: real time    0.0017
       DOS:  cpu time    0.0002: real time    0.0002
    --------------------------------------------
      LOOP:  cpu time    0.2851: real time    0.2950

 eigenvalue-minimisations  :    48
 total energy-change (2. order) :-0.1565969E-06  (-0.2870780E-07)
 number of electron       8.0000001 magnetization 
 augmentation part        0.1852074 magnetization 

 Free energy of the ion-electron system (eV)
  ---------------------------------------------------
  alpha Z        PSCENC =         0.24225079
  Ewald energy   TEWEN  =       128.68319766
  -Hartree energ DENC   =      -284.47658876
  -exchange      EXHF   =         0.00000000
  -V(xc)+E(xc)   XCENC  =        24.74087926
  PAW double counting   =       466.67620775     -467.46334555
  entropy T*S    EENTRO =        -0.00000000
  eigenvalues    EBANDS =       -89.47314590
  atomic energy  EATOM  =       197.04175453
  Solvation  Ediel_sol  =         0.00000000
  ---------------------------------------------------
  free energy    TOTEN  =       -24.02879021 eV

  energy without entropy =      -24.02879021  energy(sigma->0) =      -24.02879021


--------------------------------------------------------------------------------------------------------




 average (electrostatic) potential at core
  the test charge radii are     0.5201  0.6991
  (the norm of the test charge is              1.0000)
       1 -41.4907       2 -41.4893       3 -41.4900       4 -41.4903       5 -57.9619
 
 
 
 E-fermi :  -8.3068     XC(G=0):  -0.7017     alpha+bet : -0.2107


 k-point     1 :       0.2500    0.2500    0.2500
  band No.  band energies     occupation 
      1     -16.8806      2.00000
      2      -9.2860      2.00000
      3      -9.2853      2.00000
      4      -9.2846      2.00000
      5      -0.3146      0.00000
      6       0.5654      0.00000
      7       0.6719      0.00000
      8       0.6959      0.00000

 k-point     2 :      -0.2500    0.2500    0.2500
  band No.  band energies     occupation 
      1     -16.8806      2.00000
      2      -9.2861      2.00000
      3      -9.2854      2.00000
      4      -9.2845      2.00000
      5      -0.3147      0.00000
      6       0.5610      0.00000
      7       0.6693      0.00000
      8       0.6983      0.00000

 k-point     3 :       0.2500   -0.2500    0.2500
  band No.  band energies     occupation 
      1     -16.8806      2.00000
      2      -9.2861      2.00000
      3      -9.2854      2.00000
      4      -9.2845      2.00000
      5      -0.3146      0.00000
      6       0.5607      0.00000
      7       0.6711      0.00000
      8       0.6980      0.00000

 k-point     4 :      -0.2500   -0.2500    0.2500
  band No.  band energies     occupation 
      1     -16.8806      2.00000
      2      -9.2860      2.00000
      3      -9.2853      2.00000
      4      -9.2845      2.00000
      5      -0.3146      0.00000
      6       0.5647      0.00000
      7       0.6728      0.00000
      8       0.6951      0.00000


--------------------------------------------------------------------------------------------------------


 soft charge-density along one line, spin component           1
         0         1         2         3         4         5         6         7         8         9
 total charge-density along one line
 
 pseudopotential strength for first ion, spin component:           1
 -2.341  -4.034  -0.001  -0.001   0.001
 -4.034  -6.865  -0.003  -0.004   0.002
 -0.001  -0.003  -0.337   0.002  -0.001
 -0.001  -0.004   0.002  -0.336  -0.001
  0.001   0.002  -0.001  -0.001  -0.338
 total augmentation occupancy for first ion, spin component:           1
  3.547  -0.639   0.237   0.332  -0.137
 -0.639   0.129  -0.044  -0.061   0.025
  0.237  -0.044   0.022   0.019  -0.008
  0.332  -0.061   0.019   0.035  -0.011
 -0.137   0.025  -0.008  -0.011   0.013


------------------------ aborting loop because EDIFF is reached ----------------------------------------


    CHARGE:  cpu time    0.0172: real time    0.0178
    FORLOC:  cpu time    0.0112: real time    0.0114
    FORNL :  cpu time    0.0177: real time    0.0180
    STRESS:  cpu time    0.1369: real time    0.1399
    FORCOR:  cpu time    0.1261: real time    0.1307
    FORHAR:  cpu time    0.0391: real time    0.0406
    MIXING:  cpu time    0.0062: real time    0.0063
    OFIELD:  cpu time    0.0001: real time    0.0001

  FORCE on cell =-STRESS in cart. coord.  units (eV):
  Direction    XX          YY          ZZ          XY          YZ          ZX
  --------------------------------------------------------------------------------------
  Alpha Z     0.24225     0.24225     0.24225
  Ewald      42.88140    42.89536    42.90639    -0.00856     0.00293    -0.00369
  Hartree    94.82353    94.82694    94.82947    -0.00490     0.00065    -0.00133
  E(xc)     -27.20967   -27.20962   -27.20960    -0.00000     0.00001    -0.00001
  Local    -196.48029  -196.49390  -196.50479     0.01279    -0.00276     0.00427
  n-local   -15.89389   -15.89363   -15.89384    -0.00008     0.00006    -0.00005
  augment     0.11607     0.11597     0.11592    -0.00002    -0.00000    -0.00000
  Kinetic   101.13380   101.13048   101.12844     0.00035    -0.00060     0.00056
  Fock        0.00000     0.00000     0.00000     0.00000     0.00000     0.00000
  -------------------------------------------------------------------------------------
  Total      -0.38680    -0.38614    -0.38576    -0.00040     0.00029    -0.00026
  in kB      -0.61971    -0.61867    -0.61805    -0.00065     0.00047    -0.00041
  external pressure =       -0.62 kB  Pullay stress =        0.00 kB

  kinetic pressure (ideal gas correction) =      0.00 kB
  total pressure  =     -0.62 kB
  Total+kin.    -0.620      -0.619      -0.618      -0.001       0.000      -0.000

 VOLUME and BASIS-vectors are now :
 -----------------------------------------------------------------------------
  energy-cutoff  :      400.00
  volume of cell :     1000.00
      direct lattice vectors                 reciprocal lattice vectors
    10.000000000  0.000000000  0.000000000     0.100000000  0.000000000  0.000000000
     0.000000000 10.000000000  0.000000000     0.000000000  0.100000000  0.000000000
     0.000000000  0.000000000 10.000000000     0.000000000  0.000000000  0.100000000

  length of vectors
    10.000000000 10.000000000 10.000000000     0.100000000  0.100000000  0.100000000


 FORCES acting on ions
    electron-ion (+dipol)            ewald-force                    non-local-force                 convergence-correction
 -----------------------------------------------------------------------------------------------
   -.168E+02 0.291E+02 0.408E+02   0.186E+02 -.321E+02 -.450E+02   -.175E+01 0.303E+01 0.424E+01   0.980E-04 -.172E-03 -.240E-03
   0.523E+02 -.630E+01 0.326E+01   -.578E+02 0.695E+01 -.360E+01   0.544E+01 -.655E+00 0.339E+00   -.310E-03 0.362E-04 -.194E-04
   -.235E+02 -.473E+02 0.121E+01   0.260E+02 0.522E+02 -.134E+01   -.245E+01 -.492E+01 0.126E+00   0.139E-03 0.280E-03 -.725E-05
   -.120E+02 0.245E+02 -.452E+02   0.133E+02 -.270E+02 0.500E+02   -.125E+01 0.255E+01 -.471E+01   0.700E-04 -.145E-03 0.267E-03
   0.102E-01 -.420E-02 -.231E-02   -.119E-01 0.586E-02 0.260E-02   -.118E-02 0.608E-03 0.249E-03   -.640E-05 -.765E-05 -.125E-05
 -----------------------------------------------------------------------------------------------
   -.406E-03 0.147E-03 0.938E-04   0.354E-14 0.354E-14 -.710E-14   -.415E-04 -.537E-03 -.942E-04   -.963E-05 -.931E-05 -.118E-05
 
 
 POSITION                                       TOTAL-FORCE (eV/Angst)
 -----------------------------------------------------------------------------------
      5.38154      4.06861      3.60573         0.000732     -0.000798     -0.000777
      3.94540      4.80321      4.38469         0.000915     -0.000464     -0.000118
      5.52092      5.65450      4.42709         0.000116     -0.000711     -0.000086
      5.28185      4.16415      5.39183         0.000663     -0.000691      0.000440
      5.03251      4.67255      4.45232        -0.002882      0.002267      0.000540
 -----------------------------------------------------------------------------------
    total drift:                               -0.000457     -0.000398     -0.000002


--------------------------------------------------------------------------------------------------------



  FREE ENERGIE OF THE ION-ELECTRON SYSTEM (eV)
  ---------------------------------------------------
  free  energy   TOTEN  =       -24.02879021 eV

  energy  without entropy=      -24.02879021  energy(sigma->0) =      -24.02879021
 


--------------------------------------------------------------------------------------------------------


    POTLOK:  cpu time    0.1309: real time    0.1344


--------------------------------------------------------------------------------------------------------


 stress matrix after NEB project (eV)
     -0.38680     -0.00040     -0.00026
     -0.00040     -0.38614      0.00029
     -0.00026      0.00029     -0.38576
  FORCES: max atom, RMS     0.003706    0.001909
  FORCE total and by dimension    0.004268    0.002882
  Stress total and by dimension    0.668973    0.386795
           RANDOM_SEED =         581335433                0                0
           RANDOM_SEED =         581335433                0                0
   IONSTEP:  cpu time    0.0029: real time    0.0054

  ENERGY OF THE ELECTRON-ION-THERMOSTAT SYSTEM (eV)
  ---------------------------------------------------
% ion-electron   TOTEN  =       -24.028790  see above
  kinetic energy EKIN   =         0.000000
  kin. lattice  EKIN_LAT=         0.000000  (temperature    0.00 K)
  nose potential ES     =         0.000000
  nose kinetic   EPS    =         0.000000
  ---------------------------------------------------
  total energy   ETOTAL =       -24.028790 eV

  maximum distance moved by ions :      0.32E-06

    WAVPRE:  cpu time    0.0383: real time    0.0390
    FEWALD:  cpu time    0.0003: real time    0.0003
    ORTHCH:  cpu time    0.0078: real time    0.0080
     LOOP+:  cpu time    7.0434: real time    7.2702


--------------------------------------- Iteration      2(   1)  ---------------------------------------


    POTLOK:  cpu time    0.1316: real time    0.1337
    SETDIJ:  cpu time    0.0016: real time    0.0017
     EDDAV:  cpu time    0.1435: real time    0.1466
       DOS:  cpu time    0.0002: real time    0.0002
    CHARGE:  cpu time    0.0170: real time    0.0173
    MIXING:  cpu time    0.0057: real time    0.0058
    --------------------------------------------
      LOOP:  cpu time    0.2997: real time    0.3052

 eigenvalue-minimisations  :    64
 total energy-change (2. order) :-0.1778545E-06  (-0.6271178E-08)
 number of electron       8.0000001 magnetization 
 augmentation part        0.1852115 magnetization 

 Broyden mixing:
  rms(total) = 0.61522E-04    rms(broyden)= 0.61507E-04
  rms(prec ) = 0.82336E-04
  weight for this iteration     100.00

 Free energy of the ion-electron system (eV)
  ---------------------------------------------------
  alpha Z        PSCENC =         0.24225079
  Ewald energy   TEWEN  =       128.68311560
  -Hartree energ DENC   =      -284.47728459
  -exchange      EXHF   =         0.00000000
  -V(xc)+E(xc)   XCENC  =        24.74092065
  PAW double counting   =       466.67693745     -467.46408024
  entropy T*S    EENTRO =        -0.00000000
  eigenvalues    EBANDS =       -89.47240442
  atomic energy  EATOM  =       197.04175453
  Solvation  Ediel_sol  =         0.00000000
  ---------------------------------------------------
  free energy    TOTEN  =       -24.02879023 eV

  energy without entropy =      -24.02879023  energy(sigma->0) =      -24.02879023


--------------------------------------------------------------------------------------------------------




--------------------------------------- Iteration      2(   2)  ---------------------------------------


    POTLOK:  cpu time    0.1338: real time    0.1359
    SETDIJ:  cpu time    0.0017: real time    0.0017
    EDDIAG:  cpu time    0.0368: real time    0.0376
  RMM-DIIS:  cpu time    0.1019: real time    0.1037
    ORTHCH:  cpu time    0.0016: real time    0.0016
       DOS:  cpu time    0.0002: real time    0.0002
    CHARGE:  cpu time    0.0176: real time    0.0180
    MIXING:  cpu time    0.0041: real time    0.0042
    --------------------------------------------
      LOOP:  cpu time    0.2977: real time    0.3028

 eigenvalue-minimisations  :    32
 total energy-change (2. order) :-0.2739500E-07  ( 0.0000000E+00)
 number of electron       8.0000001 magnetization 
 augmentation part        0.1852115 magnetization 

 Broyden mixing:
  rms(total) = 0.37172E-04    rms(broyden)= 0.37171E-04
  rms(prec ) = 0.50215E-04
  weight for this iteration     100.00

 eigenvalues of (default mixing * dielectric matrix)
  average eigenvalue GAMMA=   2.5160
  2.5160

 Free energy of the ion-electron system (eV)
  ---------------------------------------------------
  alpha Z        PSCENC =         0.24225079
  Ewald energy   TEWEN  =       128.68311560
  -Hartree energ DENC   =      -284.47831704
  -exchange      EXHF   =         0.00000000
  -V(xc)+E(xc)   XCENC  =        24.74096677
  PAW double counting   =       466.67509097     -467.46224772
  entropy T*S    EENTRO =        -0.00000000
  eigenvalues    EBANDS =       -89.47140416
  atomic energy  EATOM  =       197.04175453
  Solvation  Ediel_sol  =         0.00000000
  ---------------------------------------------------
  free energy    TOTEN  =       -24.02879026 eV

  energy without entropy =      -24.02879026  energy(sigma->0) =      -24.02879026


--------------------------------------------------------------------------------------------------------




--------------------------------------- Iteration      2(   3)  ---------------------------------------


    POTLOK:  cpu time    0.1369: real time    0.1390
    SETDIJ:  cpu time    0.0028: real time    0.0029
    EDDIAG:  cpu time    0.0391: real time    0.0399
  RMM-DIIS:  cpu time    0.1190: real time    0.1217
    ORTHCH:  cpu time    0.0015: real time    0.0015
       DOS:  cpu time    0.0002: real time    0.0002
    CHARGE:  cpu time    0.0174: real time    0.0176
    MIXING:  cpu time    0.0044: real time    0.0045
    --------------------------------------------
      LOOP:  cpu time    0.3212: real time    0.3274

 eigenvalue-minimisations  :    48
 total energy-change (2. order) :-0.9020087E-07  (-0.2238826E-07)
 number of electron       8.0000001 magnetization 
 augmentation part        0.1852089 magnetization 

 Broyden mixing:
  rms(total) = 0.41639E-04    rms(broyden)= 0.41630E-04
  rms(prec ) = 0.57159E-04
  weight for this iteration     100.00

 eigenvalues of (default mixing * dielectric matrix)
  average eigenvalue GAMMA=   1.2563
  2.5071  0.0056

 Free energy of the ion-electron system (eV)
  ---------------------------------------------------
  alpha Z        PSCENC =         0.24225079
  Ewald energy   TEWEN  =       128.68311560
  -Hartree energ DENC   =      -284.47998334
  -exchange      EXHF   =         0.00000000
  -V(xc)+E(xc)   XCENC  =        24.74104129
  PAW double counting   =       466.67177759     -467.45895474
  entropy T*S    EENTRO =        -0.00000000
  eigenvalues    EBANDS =       -89.46979207
  atomic energy  EATOM  =       197.04175453
  Solvation  Ediel_sol  =         0.00000000
  ---------------------------------------------------
  free energy    TOTEN  =       -24.02879035 eV

  energy without entropy =      -24.02879035  energy(sigma->0) =      -24.02879035


--------------------------------------------------------------------------------------------------------




--------------------------------------- Iteration      2(   4)  ---------------------------------------


    POTLOK:  cpu time    0.1332: real time    0.1354
    SETDIJ:  cpu time    0.0017: real time    0.0017
    EDDIAG:  cpu time    0.0366: real time    0.0369
  RMM-DIIS:  cpu time    0.0955: real time    0.0964
    ORTHCH:  cpu time    0.0015: real time    0.0015
       DOS:  cpu time    0.0001: real time    0.0001
    --------------------------------------------
      LOOP:  cpu time    0.2685: real time    0.2719

 eigenvalue-minimisations  :    28
 total energy-change (2. order) : 0.6244221E-08  ( 0.0000000E+00)
 number of electron       8.0000001 magnetization 
 augmentation part        0.1852089 magnetization 

 Free energy of the ion-electron system (eV)
  ---------------------------------------------------
  alpha Z        PSCENC =         0.24225079
  Ewald energy   TEWEN  =       128.68311560
  -Hartree energ DENC   =      -284.47979079
  -exchange      EXHF   =         0.00000000
  -V(xc)+E(xc)   XCENC  =        24.74103243
  PAW double counting   =       466.67189219     -467.45906708
  entropy T*S    EENTRO =        -0.00000000
  eigenvalues    EBANDS =       -89.46997801
  atomic energy  EATOM  =       197.04175453
  Solvation  Ediel_sol  =         0.00000000
  ---------------------------------------------------
  free energy    TOTEN  =       -24.02879034 eV

  energy without entropy =      -24.02879034  energy(sigma->0) =      -24.02879034


--------------------------------------------------------------------------------------------------------




 average (electrostatic) potential at core
  the test charge radii are     0.5201  0.6991
  (the norm of the test charge is              1.0000)
       1 -41.4905       2 -41.4891       3 -41.4899       4 -41.4901       5 -57.9607
 
 
 
 E-fermi :  -8.3068     XC(G=0):  -0.7028     alpha+bet : -0.2107


 k-point     1 :       0.2500    0.2500    0.2500
  band No.  band energies     occupation 
      1     -16.8802      2.00000
      2      -9.2856      2.00000
      3      -9.2850      2.00000
      4      -9.2842      2.00000
      5      -0.3149      0.00000
      6       0.5643      0.00000
      7       0.6711      0.00000
      8       0.6954      0.00000

 k-point     2 :      -0.2500    0.2500    0.2500
  band No.  band energies     occupation 
      1     -16.8802      2.00000
      2      -9.2857      2.00000
      3      -9.2850      2.00000
      4      -9.2842      2.00000
      5      -0.3149      0.00000
      6       0.5599      0.00000
      7       0.6685      0.00000
      8       0.6979      0.00000

 k-point     3 :       0.2500   -0.2500    0.2500
  band No.  band energies     occupation 
      1     -16.8802      2.00000
      2      -9.2857      2.00000
      3      -9.2850      2.00000
      4      -9.2842      2.00000
      5      -0.3149      0.00000
      6       0.5596      0.00000
      7       0.6704      0.00000
      8       0.6976      0.00000

 k-point     4 :      -0.2500   -0.2500    0.2500
  band No.  band energies     occupation 
      1     -16.8802      2.00000
      2      -9.2856      2.00000
      3      -9.2850      2.00000
      4      -9.2842      2.00000
      5      -0.3149      0.00000
      6       0.5636      0.00000
      7       0.6720      0.00000
      8       0.6946      0.00000


--------------------------------------------------------------------------------------------------------


 soft charge-density along one line, spin component           1
         0         1         2         3         4         5         6         7         8         9
 total charge-density along one line
 
 pseudopotential strength for first ion, spin component:           1
 -2.341  -4.034  -0.001  -0.001   0.001
 -4.034  -6.865  -0.003  -0.004   0.002
 -0.001  -0.003  -0.337   0.002  -0.001
 -0.001  -0.004   0.002  -0.336  -0.001
  0.001   0.002  -0.001  -0.001  -0.338
 total augmentation occupancy for first ion, spin component:           1
  3.547  -0.639   0.237   0.332  -0.137
 -0.639   0.129  -0.044  -0.061   0.025
  0.237  -0.044   0.022   0.018  -0.008
  0.332  -0.061   0.018   0.035  -0.011
 -0.137   0.025  -0.008  -0.011   0.013


------------------------ aborting loop because EDIFF is reached ----------------------------------------


    CHARGE:  cpu time    0.0174: real time    0.0178
    FORLOC:  cpu time    0.0114: real time    0.0114
    FORNL :  cpu time    0.0172: real time    0.0173
    STRESS:  cpu time    0.1368: real time    0.1375
    FORCOR:  cpu time    0.1298: real time    0.1321
    FORHAR:  cpu time    0.0423: real time    0.0426
    MIXING:  cpu time    0.0057: real time    0.0057
    OFIELD:  cpu time    0.0000: real time    0.0000

  FORCE on cell =-STRESS in cart. coord.  units (eV):
  Direction    XX          YY          ZZ          XY          YZ          ZX
  --------------------------------------------------------------------------------------
  Alpha Z     0.24225     0.24225     0.24225
  Ewald      42.88166    42.89533    42.90608    -0.00849     0.00286    -0.00362
  Hartree    94.82269    94.82610    94.82865    -0.00491     0.00065    -0.00133
  E(xc)     -27.20983   -27.20978   -27.20975    -0.00000     0.00001    -0.00001
  Local    -196.47955  -196.49299  -196.50374     0.01277    -0.00272     0.00422
  n-local   -15.89379   -15.89352   -15.89372    -0.00008     0.00007    -0.00005
  augment     0.11605     0.11596     0.11591    -0.00002    -0.00000    -0.00000
  Kinetic   101.13278   101.12947   101.12742     0.00036    -0.00060     0.00055
  Fock        0.00000     0.00000     0.00000     0.00000     0.00000     0.00000
[...]
      5.52094      5.65446      4.42708         0.000407      0.000273     -0.000060
      5.28190      4.16411      5.39184         0.000129      0.000120     -0.000780
      5.03250      4.67256      4.45232         0.000211     -0.001243      0.000021
 -----------------------------------------------------------------------------------
    total drift:                               -0.000319     -0.000486      0.000008


--------------------------------------------------------------------------------------------------------



  FREE ENERGIE OF THE ION-ELECTRON SYSTEM (eV)
  ---------------------------------------------------
  free  energy   TOTEN  =       -24.02879043 eV

  energy  without entropy=      -24.02879043  energy(sigma->0) =      -24.02879043
 
 d Force =-0.6244697E-08[-0.986E-08,-0.262E-08]  d Energy = 0.2355932E-08-0.860E-08
 d Force = 0.1577489E-03[ 0.158E-03, 0.158E-03]  d Ewald  = 0.1577489E-03-0.398E-11


--------------------------------------------------------------------------------------------------------


    POTLOK:  cpu time    0.1381: real time    0.1385


--------------------------------------------------------------------------------------------------------


 stress matrix after NEB project (eV)
     -0.38549      0.00043      0.00009
      0.00043     -0.38676     -0.00012
      0.00009     -0.00012     -0.38879
  FORCES: max atom, RMS     0.001261    0.000965
  FORCE total and by dimension    0.002157    0.001243
  Stress total and by dimension    0.670329    0.388788
           RANDOM_SEED =         581335433                0                0
   IONSTEP:  cpu time    0.0002: real time    0.0002

  ENERGY OF THE ELECTRON-ION-THERMOSTAT SYSTEM (eV)
  ---------------------------------------------------
% ion-electron   TOTEN  =       -24.028790  see above
  kinetic energy EKIN   =         0.000000
  kin. lattice  EKIN_LAT=         0.000000  (temperature    0.00 K)
  nose potential ES     =         0.000000
  nose kinetic   EPS    =         0.000000
  ---------------------------------------------------
  total energy   ETOTAL =       -24.028790 eV

  maximum distance moved by ions :      0.12E-05

    WAVPRE:  cpu time    0.0436: real time    0.0441
    FEWALD:  cpu time    0.0005: real time    0.0005
    ORTHCH:  cpu time    0.0078: real time    0.0078
 Prediction of Wavefunctions ALPHA= 2.186 BETA=-1.218
     LOOP+:  cpu time    1.7713: real time    1.7803


--------------------------------------- Iteration     10(   1)  ---------------------------------------


    POTLOK:  cpu time    0.1319: real time    0.1324
    SETDIJ:  cpu time    0.0017: real time    0.0017
     EDDAV:  cpu time    0.1670: real time    0.1677
       DOS:  cpu time    0.0002: real time    0.0002
    CHARGE:  cpu time    0.0175: real time    0.0176
    MIXING:  cpu time    0.0041: real time    0.0041
    --------------------------------------------
      LOOP:  cpu time    0.3226: real time    0.3238

 eigenvalue-minimisations  :    80
 total energy-change (2. order) : 0.8825290E-07  (-0.5288807E-07)
 number of electron       8.0000001 magnetization 
 augmentation part        0.1852075 magnetization 

 Broyden mixing:
  rms(total) = 0.58508E-04    rms(broyden)= 0.58432E-04
  rms(prec ) = 0.70181E-04
  weight for this iteration     100.00

 Free energy of the ion-electron system (eV)
  ---------------------------------------------------
  alpha Z        PSCENC =         0.24225079
  Ewald energy   TEWEN  =       128.68147649
  -Hartree energ DENC   =      -284.47782205
  -exchange      EXHF   =         0.00000000
  -V(xc)+E(xc)   XCENC  =        24.74099612
  PAW double counting   =       466.65711457     -467.44425580
  entropy T*S    EENTRO =        -0.00000000
  eigenvalues    EBANDS =       -89.47030499
  atomic energy  EATOM  =       197.04175453
  Solvation  Ediel_sol  =         0.00000000
  ---------------------------------------------------
  free energy    TOTEN  =       -24.02879034 eV

  energy without entropy =      -24.02879034  energy(sigma->0) =      -24.02879034


--------------------------------------------------------------------------------------------------------




--------------------------------------- Iteration     10(   2)  ---------------------------------------


    POTLOK:  cpu time    0.1326: real time    0.1331
    SETDIJ:  cpu time    0.0017: real time    0.0017
    EDDIAG:  cpu time    0.0361: real time    0.0371
  RMM-DIIS:  cpu time    0.0997: real time    0.1002
    ORTHCH:  cpu time    0.0014: real time    0.0014
       DOS:  cpu time    0.0002: real time    0.0002
    CHARGE:  cpu time    0.0175: real time    0.0175
    MIXING:  cpu time    0.0043: real time    0.0043
    --------------------------------------------
      LOOP:  cpu time    0.2934: real time    0.2954

 eigenvalue-minimisations  :    32
 total energy-change (2. order) :-0.1246360E-07  ( 0.0000000E+00)
 number of electron       8.0000001 magnetization 
 augmentation part        0.1852076 magnetization 

 Broyden mixing:
  rms(total) = 0.36160E-04    rms(broyden)= 0.36155E-04
  rms(prec ) = 0.43677E-04
  weight for this iteration     100.00

 eigenvalues of (default mixing * dielectric matrix)
  average eigenvalue GAMMA=   2.6161
  2.6161

 Free energy of the ion-electron system (eV)
  ---------------------------------------------------
  alpha Z        PSCENC =         0.24225079
  Ewald energy   TEWEN  =       128.68147649
  -Hartree energ DENC   =      -284.47780597
  -exchange      EXHF   =         0.00000000
  -V(xc)+E(xc)   XCENC  =        24.74096733
  PAW double counting   =       466.65778123     -467.44493039
  entropy T*S    EENTRO =        -0.00000000
  eigenvalues    EBANDS =       -89.47028436
  atomic energy  EATOM  =       197.04175453
  Solvation  Ediel_sol  =         0.00000000
  ---------------------------------------------------
  free energy    TOTEN  =       -24.02879035 eV

  energy without entropy =      -24.02879035  energy(sigma->0) =      -24.02879035


--------------------------------------------------------------------------------------------------------




--------------------------------------- Iteration     10(   3)  ---------------------------------------


    POTLOK:  cpu time    0.1343: real time    0.1348
    SETDIJ:  cpu time    0.0017: real time    0.0017
    EDDIAG:  cpu time    0.0366: real time    0.0368
  RMM-DIIS:  cpu time    0.1044: real time    0.1048
    ORTHCH:  cpu time    0.0015: real time    0.0015
       DOS:  cpu time    0.0002: real time    0.0002
    CHARGE:  cpu time    0.0173: real time    0.0174
    MIXING:  cpu time    0.0058: real time    0.0058
    --------------------------------------------
      LOOP:  cpu time    0.3017: real time    0.3030

 eigenvalue-minimisations  :    35
 total energy-change (2. order) :-0.3939783E-07  (-0.1341904E-08)
 number of electron       8.0000001 magnetization 
 augmentation part        0.1852073 magnetization 

 Broyden mixing:
  rms(total) = 0.50429E-05    rms(broyden)= 0.50393E-05
  rms(prec ) = 0.69363E-05
  weight for this iteration     100.00

 eigenvalues of (default mixing * dielectric matrix)
  average eigenvalue GAMMA=   1.4099
  2.5698  0.2501

 Free energy of the ion-electron system (eV)
  ---------------------------------------------------
  alpha Z        PSCENC =         0.24225079
  Ewald energy   TEWEN  =       128.68147649
  -Hartree energ DENC   =      -284.47772607
  -exchange      EXHF   =         0.00000000
  -V(xc)+E(xc)   XCENC  =        24.74091650
  PAW double counting   =       466.65872700     -467.44588846
  entropy T*S    EENTRO =        -0.00000000
  eigenvalues    EBANDS =       -89.47030118
  atomic energy  EATOM  =       197.04175453
  Solvation  Ediel_sol  =         0.00000000
  ---------------------------------------------------
  free energy    TOTEN  =       -24.02879039 eV

  energy without entropy =      -24.02879039  energy(sigma->0) =      -24.02879039


--------------------------------------------------------------------------------------------------------




--------------------------------------- Iteration     10(   4)  ---------------------------------------


    POTLOK:  cpu time    0.1331: real time    0.1337
    SETDIJ:  cpu time    0.0019: real time    0.0019
    EDDIAG:  cpu time    0.0368: real time    0.0370
  RMM-DIIS:  cpu time    0.1005: real time    0.1009
    ORTHCH:  cpu time    0.0014: real time    0.0014
       DOS:  cpu time    0.0002: real time    0.0002
    --------------------------------------------
      LOOP:  cpu time    0.2738: real time    0.2750

 eigenvalue-minimisations  :    32
 total energy-change (2. order) :-0.2909758E-08  ( 0.0000000E+00)
 number of electron       8.0000001 magnetization 
 augmentation part        0.1852073 magnetization 

 Free energy of the ion-electron system (eV)
  ---------------------------------------------------
  alpha Z        PSCENC =         0.24225079
  Ewald energy   TEWEN  =       128.68147649
  -Hartree energ DENC   =      -284.47768785
  -exchange      EXHF   =         0.00000000
  -V(xc)+E(xc)   XCENC  =        24.74091652
  PAW double counting   =       466.65850131     -467.44566185
  entropy T*S    EENTRO =        -0.00000000
  eigenvalues    EBANDS =       -89.47034034
  atomic energy  EATOM  =       197.04175453
  Solvation  Ediel_sol  =         0.00000000
  ---------------------------------------------------
  free energy    TOTEN  =       -24.02879039 eV

  energy without entropy =      -24.02879039  energy(sigma->0) =      -24.02879039


--------------------------------------------------------------------------------------------------------




 average (electrostatic) potential at core
  the test charge radii are     0.5201  0.6991
  (the norm of the test charge is              1.0000)
       1 -41.4898       2 -41.4897       3 -41.4902       4 -41.4898       5 -57.9610
 
 
 
 E-fermi :  -8.3055     XC(G=0):  -0.6972     alpha+bet : -0.2107


 k-point     1 :       0.2500    0.2500    0.2500
  band No.  band energies     occupation 
      1     -16.8802      2.00000
      2      -9.2851      2.00000
      3      -9.2850      2.00000
      4      -9.2848      2.00000
      5      -0.3135      0.00000
      6       0.5701      0.00000
      7       0.6738      0.00000
      8       0.6981      0.00000

 k-point     2 :      -0.2500    0.2500    0.2500
  band No.  band energies     occupation 
      1     -16.8802      2.00000
      2      -9.2853      2.00000
      3      -9.2850      2.00000
      4      -9.2847      2.00000
      5      -0.3136      0.00000
      6       0.5657      0.00000
      7       0.6711      0.00000
      8       0.7006      0.00000

 k-point     3 :       0.2500   -0.2500    0.2500
  band No.  band energies     occupation 
      1     -16.8802      2.00000
      2      -9.2853      2.00000
      3      -9.2850      2.00000
      4      -9.2847      2.00000
      5      -0.3135      0.00000
      6       0.5652      0.00000
      7       0.6731      0.00000
      8       0.7004      0.00000

 k-point     4 :      -0.2500   -0.2500    0.2500
  band No.  band energies     occupation 
      1     -16.8802      2.00000
      2      -9.2851      2.00000
      3      -9.2850      2.00000
      4      -9.2847      2.00000
      5      -0.3135      0.00000
      6       0.5694      0.00000
      7       0.6746      0.00000
      8       0.6973      0.00000


--------------------------------------------------------------------------------------------------------


 soft charge-density along one line, spin component           1
         0         1         2         3         4         5         6         7         8         9
 total charge-density along one line
 
 pseudopotential strength for first ion, spin component:           1
 -2.341  -4.034  -0.001  -0.001   0.001
 -4.034  -6.865  -0.003  -0.004   0.002
 -0.001  -0.003  -0.337   0.002  -0.001
 -0.001  -0.004   0.002  -0.336  -0.001
  0.001   0.002  -0.001  -0.001  -0.338
 total augmentation occupancy for first ion, spin component:           1
  3.547  -0.639   0.237   0.332  -0.137
 -0.639   0.129  -0.044  -0.061   0.025
  0.237  -0.044   0.022   0.018  -0.008
  0.332  -0.061   0.018   0.035  -0.011
 -0.137   0.025  -0.008  -0.011   0.013


------------------------ aborting loop because EDIFF is reached ----------------------------------------


    CHARGE:  cpu time    0.0176: real time    0.0177
    FORLOC:  cpu time    0.0112: real time    0.0112
    FORNL :  cpu time    0.0177: real time    0.0177
    STRESS:  cpu time    0.1380: real time    0.1383
    FORCOR:  cpu time    0.1298: real time    0.1302
    FORHAR:  cpu time    0.0418: real time    0.0419
    MIXING:  cpu time    0.0046: real time    0.0047
    OFIELD:  cpu time    0.0000: real time    0.0000

  FORCE on cell =-STRESS in cart. coord.  units (eV):
  Direction    XX          YY          ZZ          XY          YZ          ZX
  --------------------------------------------------------------------------------------
  Alpha Z     0.24225     0.24225     0.24225
  Ewald      42.88990    42.89440    42.89713    -0.00667     0.00062    -0.00135
  Hartree    94.82309    94.82589    94.82837    -0.00507     0.00046    -0.00107
  E(xc)     -27.20969   -27.20965   -27.20963    -0.00001     0.00001    -0.00000
  Local    -196.48530  -196.49191  -196.49751     0.01193    -0.00098     0.00235
  n-local   -15.89382   -15.89337   -15.89332    -0.00016     0.00010    -0.00008
  augment     0.11603     0.11596     0.11594    -0.00003     0.00000    -0.00001
  Kinetic   101.13210   101.12967   101.12789     0.00048    -0.00035     0.00026
  Fock        0.00000     0.00000     0.00000     0.00000     0.00000     0.00000
  -------------------------------------------------------------------------------------
  Total      -0.38544    -0.38675    -0.38887     0.00048    -0.00014     0.00010
  in kB      -0.61754    -0.61964    -0.62305     0.00077    -0.00022     0.00017
  external pressure =       -0.62 kB  Pullay stress =        0.00 kB

  kinetic pressure (ideal gas correction) =      0.00 kB
  total pressure  =     -0.62 kB
  Total+kin.    -0.618      -0.620      -0.623       0.001      -0.000       0.000

 VOLUME and BASIS-vectors are now :
 -----------------------------------------------------------------------------
  energy-cutoff  :      400.00
  volume of cell :     1000.00
      direct lattice vectors                 reciprocal lattice vectors
    10.000000000  0.000000000  0.000000000     0.100000000  0.000000000  0.000000000
     0.000000000 10.000000000  0.000000000     0.000000000  0.100000000  0.000000000
     0.000000000  0.000000000 10.000000000     0.000000000  0.000000000  0.100000000

  length of vectors
    10.000000000 10.000000000 10.000000000     0.100000000  0.100000000  0.100000000


 FORCES acting on ions
    electron-ion (+dipol)            ewald-force                    non-local-force                 convergence-correction
 -----------------------------------------------------------------------------------------------
   -.168E+02 0.291E+02 0.408E+02   0.186E+02 -.321E+02 -.450E+02   -.175E+01 0.302E+01 0.424E+01   -.697E-05 0.125E-04 0.190E-04
   0.523E+02 -.630E+01 0.326E+01   -.578E+02 0.695E+01 -.360E+01   0.545E+01 -.654E+00 0.339E+00   0.249E-04 -.569E-05 0.143E-05
   -.235E+02 -.473E+02 0.122E+01   0.260E+02 0.522E+02 -.134E+01   -.245E+01 -.492E+01 0.126E+00   -.874E-05 -.232E-04 0.453E-06
   -.120E+02 0.245E+02 -.452E+02   0.133E+02 -.270E+02 0.499E+02   -.125E+01 0.255E+01 -.471E+01   -.465E-05 0.103E-04 -.213E-04
   0.104E-01 -.150E-02 -.318E-02   -.111E-01 0.175E-02 0.334E-02   0.973E-03 -.159E-02 -.235E-03   -.685E-06 -.564E-05 -.410E-06
 -----------------------------------------------------------------------------------------------
   -.326E-02 0.349E-02 0.491E-03   0.142E-13 0.354E-14 0.651E-17   0.249E-02 -.362E-02 -.522E-03   0.381E-05 -.117E-04 -.879E-06
 
 
 POSITION                                       TOTAL-FORCE (eV/Angst)
 -----------------------------------------------------------------------------------
      5.38160      4.06857      3.60570        -0.000272      0.000679      0.001072
      3.94545      4.80317      4.38468        -0.001043     -0.000107     -0.000135
      5.52094      5.65445      4.42708         0.000341      0.000401     -0.000053
      5.28191      4.16410      5.39184         0.000006      0.000232     -0.000839
      5.03249      4.67256      4.45232         0.000195     -0.001348     -0.000075
 -----------------------------------------------------------------------------------
    total drift:                               -0.000773     -0.000143     -0.000031


--------------------------------------------------------------------------------------------------------



  FREE ENERGIE OF THE ION-ELECTRON SYSTEM (eV)
  ---------------------------------------------------
  free  energy   TOTEN  =       -24.02879039 eV

  energy  without entropy=      -24.02879039  energy(sigma->0) =      -24.02879039
 
 d Force =-0.4943107E-08[-0.768E-08,-0.220E-08]  d Energy =-0.3488645E-07 0.299E-07
 d Force = 0.9376330E-04[ 0.938E-04, 0.938E-04]  d Ewald  = 0.9376331E-04-0.506E-11


--------------------------------------------------------------------------------------------------------


    POTLOK:  cpu time    0.1362: real time    0.1367


--------------------------------------------------------------------------------------------------------


 stress matrix after NEB project (eV)
     -0.38544      0.00048      0.00010
      0.00048     -0.38675     -0.00014
      0.00010     -0.00014     -0.38887
  FORCES: max atom, RMS     0.001364    0.001068
  FORCE total and by dimension    0.002387    0.001348
  Stress total and by dimension    0.670347    0.388875
           RANDOM_SEED =         581335433                0                0
   IONSTEP:  cpu time    0.0001: real time    0.0001

  ENERGY OF THE ELECTRON-ION-THERMOSTAT SYSTEM (eV)
  ---------------------------------------------------
% ion-electron   TOTEN  =       -24.028790  see above
  kinetic energy EKIN   =         0.000000
  kin. lattice  EKIN_LAT=         0.000000  (temperature    0.00 K)
  nose potential ES     =         0.000000
  nose kinetic   EPS    =         0.000000
  ---------------------------------------------------
  total energy   ETOTAL =       -24.028790 eV

  maximum distance moved by ions :      0.13E-05


 mean value of Nose-termostat <S>:     1.000 mean value of <T> :     0.000
 mean temperature <T/S>/<1/S>  :     0.000

    WAVPRE:  cpu time    0.0472: real time    0.0476
    FEWALD:  cpu time    0.0006: real time    0.0006
    ORTHCH:  cpu time    0.0079: real time    0.0079
 Prediction of Wavefunctions ALPHA= 2.072 BETA=-1.099
    POTLOK:  cpu time    0.1345: real time    0.1350
    EDDIAG:  cpu time    0.0379: real time    0.0381
     LOOP+:  cpu time    1.9209: real time    1.9296
    4ORBIT:  cpu time    0.0000: real time    0.0002

 total amount of memory used by VASP MPI-rank0    56532. kBytes
=======================================================================

   base      :      30000. kBytes
   nonl-proj :       2680. kBytes
   fftplans  :       8576. kBytes
   grid      :      13527. kBytes
   one-center:          6. kBytes
   wavefun   :       1743. kBytes
 
  
  
 General timing and accounting informations for this job:
 ========================================================
  
                  Total CPU time used (sec):       24.008
                            User time (sec):       22.498
                          System time (sec):        1.510
                         Elapsed time (sec):       24.849
  
                   Maximum memory used (kb):      174136.
                   Average memory used (kb):           0.
  
                          Minor page faults:       237750
                          Major page faults:          197
                 Voluntary context switches:          591
