unknown system                          
           1
    10.000000    0.000000    0.000000
     0.000000   10.000000    0.000000
     0.000000    0.000000   10.000000
   H    C 
   4   1
Direct configuration=     1
   0.53815400  0.40686100  0.36057300
   0.39454000  0.48032100  0.43846900
   0.55209200  0.56545000  0.44270900
   0.52818500  0.41641500  0.53918300
   0.50325100  0.46725500  0.44523200
Direct configuration=     2
   0.53815418  0.40686081  0.36057281
   0.39454023  0.48032089  0.43846897
   0.55209203  0.56544983  0.44270898
   0.52818517  0.41641484  0.53918311
   0.50325095  0.46725505  0.44523201
Direct configuration=     3
   0.53815455  0.40686044  0.36057243
   0.39454063  0.48032069  0.43846891
   0.55209212  0.56544955  0.44270894
   0.52818550  0.41641451  0.53918333
   0.50325085  0.46725515  0.44523203
Direct configuration=     4
   0.53815507  0.40685993  0.36057193
   0.39454121  0.48032038  0.43846882
   0.55209225  0.56544911  0.44270887
   0.52818599  0.41641405  0.53918361
   0.50325071  0.46725529  0.44523206
Direct configuration=     5
   0.53815571  0.40685933  0.36057139
   0.39454193  0.48031999  0.43846870
   0.55209242  0.56544854  0.44270879
   0.52818660  0.41641350  0.53918388
   0.50325053  0.46725547  0.44523210
Direct configuration=     6
   0.53815644  0.40685869  0.36057085
   0.39454271  0.48031951  0.43846855
   0.55209266  0.56544788  0.44270869
   0.52818733  0.41641287  0.53918413
   0.50325032  0.46725567  0.44523215
Direct configuration=     7
   0.53815725  0.40685805  0.36057036
   0.39454345  0.48031896  0.43846836
   0.55209297  0.56544720  0.44270857
   0.52818815  0.41641219  0.53918431
   0.50325010  0.46725588  0.44523220
Direct configuration=     8
   0.53815808  0.40685745  0.36056999
   0.39454409  0.48031835  0.43846814
   0.55209338  0.56544653  0.44270843
   0.52818906  0.41641148  0.53918438
   0.50324987  0.46725610  0.44523225
Direct configuration=     9
   0.53815891  0.40685695  0.36056982
   0.39454457  0.48031770  0.43846788
   0.55209389  0.56544591  0.44270827
   0.52819002  0.41641079  0.53918429
   0.50324964  0.46725630  0.44523231
Direct configuration=    10
   0.53815972  0.40685659  0.36056988
   0.39454482  0.48031701  0.43846758
   0.55209450  0.56544535  0.44270810
   0.52819102  0.41641013  0.53918401
   0.50324941  0.46725649  0.44523237
