   5   5   0   0
  0.1903599E+03  0.9768621E-09  0.9944155E-09  0.9798290E-09  0.5000000E-15
  1.000000000000000E-004
  CAR 
 unknown system                          
      2.72088797    -18.75158817  301     -8.22993507      1.00000000
    -18.752  0.0000E+00  0.0000E+00
    -18.680  0.0000E+00  0.0000E+00
    -18.608  0.0000E+00  0.0000E+00
    -18.537  0.0000E+00  0.0000E+00
    -18.465  0.0000E+00  0.0000E+00
    -18.394  0.0000E+00  0.0000E+00
    -18.322  0.0000E+00  0.0000E+00
    -18.251  0.0000E+00  0.0000E+00
    -18.179  0.0000E+00  0.0000E+00
    -18.107  0.0000E+00  0.0000E+00
    -18.036  0.0000E+00  0.0000E+00
    -17.964  0.0000E+00  0.0000E+00
    -17.893  0.1401E-13  0.1010E-14
    -17.821  0.7724E-12  0.5672E-13
    -17.750  0.3329E-10  0.2458E-11
    -17.678  0.1110E-08  0.8252E-10
    -17.606  0.2863E-07  0.2147E-08
    -17.535  0.5714E-06  0.4336E-07
    -17.463  0.8827E-05  0.6800E-06
    -17.392  0.1056E-03  0.8293E-05
    -17.320  0.9776E-03  0.7879E-04
    -17.249  0.7014E-02  0.5846E-03
    -17.177  0.3899E-01  0.3396E-02
    -17.105  0.1680E+00  0.1551E-01
    -17.034  0.5614E+00  0.5598E-01
    -16.962  0.1455E+01  0.1608E+00
    -16.891  0.2925E+01  0.3716E+00
    -16.819  0.4562E+01  0.7004E+00
    -16.747  0.5525E+01  0.1099E+01
    -16.676  0.5194E+01  0.1473E+01
    -16.604  0.3792E+01  0.1746E+01
    -16.533  0.2150E+01  0.1901E+01
    -16.461  0.9469E+00  0.1969E+01
    -16.390  0.3240E+00  0.1992E+01
    -16.318  0.8616E-01  0.1998E+01
    -16.246  0.1780E-01  0.2000E+01
    -16.175  0.2859E-02  0.2000E+01
    -16.103  0.3568E-03  0.2000E+01
    -16.032  0.3462E-04  0.2000E+01
    -15.960  0.2611E-05  0.2000E+01
    -15.889  0.1530E-06  0.2000E+01
    -15.817  0.6975E-08  0.2000E+01
    -15.745  0.2471E-09  0.2000E+01
    -15.674  0.6806E-11  0.2000E+01
    -15.602  0.1461E-12  0.2000E+01
    -15.531  0.2168E-14  0.2000E+01
    -15.459  0.0000E+00  0.2000E+01
    -15.388  0.0000E+00  0.2000E+01
    -15.316  0.0000E+00  0.2000E+01
    -15.244  0.0000E+00  0.2000E+01
    -15.173  0.0000E+00  0.2000E+01
    -15.101  0.0000E+00  0.2000E+01
    -15.030  0.0000E+00  0.2000E+01
    -14.958  0.0000E+00  0.2000E+01
    -14.887  0.0000E+00  0.2000E+01
    -14.815  0.0000E+00  0.2000E+01
    -14.743  0.0000E+00  0.2000E+01
    -14.672  0.0000E+00  0.2000E+01
    -14.600  0.0000E+00  0.2000E+01
    -14.529  0.0000E+00  0.2000E+01
    -14.457  0.0000E+00  0.2000E+01
    -14.386  0.0000E+00  0.2000E+01
    -14.314  0.0000E+00  0.2000E+01
    -14.242  0.0000E+00  0.2000E+01
    -14.171  0.0000E+00  0.2000E+01
    -14.099  0.0000E+00  0.2000E+01
    -14.028  0.0000E+00  0.2000E+01
    -13.956  0.0000E+00  0.2000E+01
    -13.884  0.0000E+00  0.2000E+01
    -13.813  0.0000E+00  0.2000E+01
    -13.741  0.0000E+00  0.2000E+01
    -13.670  0.0000E+00  0.2000E+01
    -13.598  0.0000E+00  0.2000E+01
    -13.527  0.0000E+00  0.2000E+01
    -13.455  0.0000E+00  0.2000E+01
    -13.383  0.0000E+00  0.2000E+01
    -13.312  0.0000E+00  0.2000E+01
    -13.240  0.0000E+00  0.2000E+01
    -13.169  0.0000E+00  0.2000E+01
    -13.097  0.0000E+00  0.2000E+01
    -13.026  0.0000E+00  0.2000E+01
    -12.954  0.0000E+00  0.2000E+01
    -12.882  0.0000E+00  0.2000E+01
    -12.811  0.0000E+00  0.2000E+01
    -12.739  0.0000E+00  0.2000E+01
    -12.668  0.0000E+00  0.2000E+01
    -12.596  0.0000E+00  0.2000E+01
    -12.525  0.0000E+00  0.2000E+01
    -12.453  0.0000E+00  0.2000E+01
    -12.381  0.0000E+00  0.2000E+01
    -12.310  0.0000E+00  0.2000E+01
    -12.238  0.0000E+00  0.2000E+01
    -12.167  0.0000E+00  0.2000E+01
    -12.095  0.0000E+00  0.2000E+01
    -12.024  0.0000E+00  0.2000E+01
    -11.952  0.0000E+00  0.2000E+01
    -11.880  0.0000E+00  0.2000E+01
    -11.809  0.0000E+00  0.2000E+01
    -11.737  0.0000E+00  0.2000E+01
    -11.666  0.0000E+00  0.2000E+01
    -11.594  0.0000E+00  0.2000E+01
    -11.523  0.0000E+00  0.2000E+01
    -11.451  0.0000E+00  0.2000E+01
    -11.379  0.0000E+00  0.2000E+01
    -11.308  0.0000E+00  0.2000E+01
    -11.236  0.0000E+00  0.2000E+01
    -11.165  0.0000E+00  0.2000E+01
    -11.093  0.0000E+00  0.2000E+01
    -11.021  0.0000E+00  0.2000E+01
    -10.950  0.0000E+00  0.2000E+01
    -10.878  0.0000E+00  0.2000E+01
    -10.807  0.0000E+00  0.2000E+01
    -10.735  0.0000E+00  0.2000E+01
    -10.664  0.0000E+00  0.2000E+01
    -10.592  0.0000E+00  0.2000E+01
    -10.520  0.0000E+00  0.2000E+01
    -10.449  0.0000E+00  0.2000E+01
    -10.377  0.2939E-13  0.2000E+01
    -10.306  0.1563E-11  0.2000E+01
    -10.234  0.6514E-10  0.2000E+01
    -10.163  0.2110E-08  0.2000E+01
    -10.091  0.5317E-07  0.2000E+01
    -10.019  0.1042E-05  0.2000E+01
     -9.948  0.1591E-04  0.2000E+01
     -9.876  0.1893E-03  0.2000E+01
     -9.805  0.1757E-02  0.2000E+01
     -9.733  0.1274E-01  0.2001E+01
     -9.662  0.7225E-01  0.2006E+01
     -9.590  0.3209E+00  0.2029E+01
     -9.518  0.1118E+01  0.2110E+01
     -9.447  0.3063E+01  0.2331E+01
     -9.375  0.6604E+01  0.2806E+01
     -9.304  0.1123E+02  0.3615E+01
     -9.232  0.1507E+02  0.4702E+01
     -9.161  0.1600E+02  0.5854E+01
     -9.089  0.1343E+02  0.6822E+01
     -9.017  0.8910E+01  0.7464E+01
     -8.946  0.4673E+01  0.7801E+01
     -8.874  0.1935E+01  0.7940E+01
     -8.803  0.6316E+00  0.7986E+01
     -8.731  0.1622E+00  0.7997E+01
     -8.660  0.3274E-01  0.8000E+01
     -8.588  0.5179E-02  0.8000E+01
     -8.516  0.6413E-03  0.8000E+01
     -8.445  0.6205E-04  0.8000E+01
     -8.373  0.4686E-05  0.8000E+01
     -8.302  0.2758E-06  0.8000E+01
     -8.230  0.1264E-07  0.8000E+01
     -8.158  0.4506E-09  0.8000E+01
     -8.087  0.1249E-10  0.8000E+01
     -8.015  0.2681E-12  0.8000E+01
     -7.944  0.4317E-14  0.8000E+01
     -7.872  0.0000E+00  0.8000E+01
     -7.801  0.0000E+00  0.8000E+01
     -7.729  0.0000E+00  0.8000E+01
     -7.657  0.0000E+00  0.8000E+01
     -7.586  0.0000E+00  0.8000E+01
     -7.514  0.0000E+00  0.8000E+01
     -7.443  0.0000E+00  0.8000E+01
     -7.371  0.0000E+00  0.8000E+01
     -7.300  0.0000E+00  0.8000E+01
     -7.228  0.0000E+00  0.8000E+01
     -7.156  0.0000E+00  0.8000E+01
     -7.085  0.0000E+00  0.8000E+01
     -7.013  0.0000E+00  0.8000E+01
     -6.942  0.0000E+00  0.8000E+01
     -6.870  0.0000E+00  0.8000E+01
     -6.799  0.0000E+00  0.8000E+01
     -6.727  0.0000E+00  0.8000E+01
     -6.655  0.0000E+00  0.8000E+01
     -6.584  0.0000E+00  0.8000E+01
     -6.512  0.0000E+00  0.8000E+01
     -6.441  0.0000E+00  0.8000E+01
     -6.369  0.0000E+00  0.8000E+01
     -6.298  0.0000E+00  0.8000E+01
     -6.226  0.0000E+00  0.8000E+01
     -6.154  0.0000E+00  0.8000E+01
     -6.083  0.0000E+00  0.8000E+01
     -6.011  0.0000E+00  0.8000E+01
     -5.940  0.0000E+00  0.8000E+01
     -5.868  0.0000E+00  0.8000E+01
     -5.797  0.0000E+00  0.8000E+01
     -5.725  0.0000E+00  0.8000E+01
     -5.653  0.0000E+00  0.8000E+01
     -5.582  0.0000E+00  0.8000E+01
     -5.510  0.0000E+00  0.8000E+01
     -5.439  0.0000E+00  0.8000E+01
     -5.367  0.0000E+00  0.8000E+01
     -5.296  0.0000E+00  0.8000E+01
     -5.224  0.0000E+00  0.8000E+01
     -5.152  0.0000E+00  0.8000E+01
     -5.081  0.0000E+00  0.8000E+01
     -5.009  0.0000E+00  0.8000E+01
     -4.938  0.0000E+00  0.8000E+01
     -4.866  0.0000E+00  0.8000E+01
     -4.794  0.0000E+00  0.8000E+01
     -4.723  0.0000E+00  0.8000E+01
     -4.651  0.0000E+00  0.8000E+01
     -4.580  0.0000E+00  0.8000E+01
     -4.508  0.0000E+00  0.8000E+01
     -4.437  0.0000E+00  0.8000E+01
     -4.365  0.0000E+00  0.8000E+01
     -4.293  0.0000E+00  0.8000E+01
     -4.222  0.0000E+00  0.8000E+01
     -4.150  0.0000E+00  0.8000E+01
     -4.079  0.0000E+00  0.8000E+01
     -4.007  0.0000E+00  0.8000E+01
     -3.936  0.0000E+00  0.8000E+01
     -3.864  0.0000E+00  0.8000E+01
     -3.792  0.0000E+00  0.8000E+01
     -3.721  0.0000E+00  0.8000E+01
     -3.649  0.0000E+00  0.8000E+01
     -3.578  0.0000E+00  0.8000E+01
     -3.506  0.0000E+00  0.8000E+01
     -3.435  0.0000E+00  0.8000E+01
     -3.363  0.0000E+00  0.8000E+01
     -3.291  0.0000E+00  0.8000E+01
     -3.220  0.0000E+00  0.8000E+01
     -3.148  0.0000E+00  0.8000E+01
     -3.077  0.0000E+00  0.8000E+01
     -3.005  0.0000E+00  0.8000E+01
     -2.934  0.0000E+00  0.8000E+01
     -2.862  0.0000E+00  0.8000E+01
     -2.790  0.0000E+00  0.8000E+01
     -2.719  0.0000E+00  0.8000E+01
     -2.647  0.0000E+00  0.8000E+01
     -2.576  0.0000E+00  0.8000E+01
     -2.504  0.0000E+00  0.8000E+01
     -2.433  0.0000E+00  0.8000E+01
     -2.361  0.0000E+00  0.8000E+01
     -2.289  0.0000E+00  0.8000E+01
     -2.218  0.0000E+00  0.8000E+01
     -2.146  0.0000E+00  0.8000E+01
     -2.075  0.0000E+00  0.8000E+01
     -2.003  0.0000E+00  0.8000E+01
     -1.931  0.0000E+00  0.8000E+01
     -1.860  0.0000E+00  0.8000E+01
     -1.788  0.0000E+00  0.8000E+01
     -1.717  0.0000E+00  0.8000E+01
     -1.645  0.0000E+00  0.8000E+01
     -1.574  0.0000E+00  0.8000E+01
     -1.502  0.3101E-15  0.8000E+01
     -1.430  0.2567E-13  0.8000E+01
     -1.359  0.1292E-11  0.8000E+01
     -1.287  0.5053E-10  0.8000E+01
     -1.216  0.1540E-08  0.8000E+01
     -1.144  0.3662E-07  0.8000E+01
     -1.073  0.6796E-06  0.8000E+01
     -1.001  0.9846E-05  0.8000E+01
     -0.929  0.1115E-03  0.8000E+01
     -0.858  0.9862E-03  0.8000E+01
     -0.786  0.6824E-02  0.8001E+01
     -0.715  0.3694E-01  0.8003E+01
     -0.643  0.1565E+00  0.8014E+01
     -0.572  0.5189E+00  0.8052E+01
     -0.500  0.1346E+01  0.8149E+01
     -0.428  0.2734E+01  0.8346E+01
     -0.357  0.4345E+01  0.8658E+01
     -0.285  0.5400E+01  0.9048E+01
     -0.214  0.5246E+01  0.9426E+01
     -0.142  0.3982E+01  0.9713E+01
     -0.071  0.2360E+01  0.9883E+01
      0.001  0.1091E+01  0.9962E+01
      0.073  0.3956E+00  0.9990E+01
      0.144  0.1258E+00  0.9999E+01
      0.216  0.1037E+00  0.1001E+02
      0.287  0.3301E+00  0.1003E+02
      0.359  0.1065E+01  0.1011E+02
      0.430  0.2787E+01  0.1031E+02
      0.502  0.5881E+01  0.1073E+02
      0.574  0.1004E+02  0.1145E+02
      0.645  0.1388E+02  0.1245E+02
      0.717  0.1552E+02  0.1357E+02
      0.788  0.1397E+02  0.1458E+02
      0.860  0.1006E+02  0.1530E+02
      0.932  0.5770E+01  0.1572E+02
      1.003  0.2617E+01  0.1591E+02
      1.075  0.9346E+00  0.1598E+02
      1.146  0.2618E+00  0.1600E+02
      1.218  0.5733E-01  0.1600E+02
      1.289  0.9794E-02  0.1600E+02
      1.361  0.1303E-02  0.1600E+02
      1.433  0.1349E-03  0.1600E+02
      1.504  0.1084E-04  0.1600E+02
      1.576  0.6770E-06  0.1600E+02
      1.647  0.3279E-07  0.1600E+02
      1.719  0.1231E-08  0.1600E+02
      1.790  0.3584E-10  0.1600E+02
      1.862  0.8083E-12  0.1600E+02
      1.934  0.1362E-13  0.1600E+02
      2.005  0.0000E+00  0.1600E+02
      2.077  0.0000E+00  0.1600E+02
      2.148  0.0000E+00  0.1600E+02
      2.220  0.0000E+00  0.1600E+02
      2.291  0.0000E+00  0.1600E+02
      2.363  0.0000E+00  0.1600E+02
      2.435  0.0000E+00  0.1600E+02
      2.506  0.0000E+00  0.1600E+02
      2.578  0.0000E+00  0.1600E+02
      2.649  0.0000E+00  0.1600E+02
      2.721  0.0000E+00  0.1600E+02
      2.71799336    -18.73998204  301     -8.22543439      1.00000000
    -18.740  0.0000E+00  0.0000E+00
    -18.668  0.0000E+00  0.0000E+00
    -18.597  0.0000E+00  0.0000E+00
    -18.525  0.0000E+00  0.0000E+00
    -18.454  0.0000E+00  0.0000E+00
    -18.382  0.0000E+00  0.0000E+00
    -18.311  0.0000E+00  0.0000E+00
    -18.239  0.0000E+00  0.0000E+00
    -18.168  0.0000E+00  0.0000E+00
    -18.096  0.0000E+00  0.0000E+00
    -18.025  0.0000E+00  0.0000E+00
    -17.953  0.0000E+00  0.0000E+00
    -17.882  0.9313E-15  0.6661E-16
    -17.810  0.5231E-13  0.3808E-14
    -17.739  0.2246E-11  0.1645E-12
    -17.667  0.7501E-10  0.5530E-11
    -17.596  0.1946E-08  0.1447E-09
    -17.524  0.3922E-07  0.2950E-08
    -17.453  0.6143E-06  0.4689E-07
    -17.381  0.7480E-05  0.5819E-06
    -17.309  0.7082E-04  0.5647E-05
    -17.238  0.5214E-03  0.4294E-04
    -17.166  0.2986E-02  0.2565E-03
    -17.095  0.1330E-01  0.1208E-02
    -17.023  0.4612E-01  0.4507E-02
    -16.952  0.1244E+00  0.1341E-01
    -16.880  0.2613E+00  0.3210E-01
    -16.809  0.4271E+00  0.6265E-01
    -16.737  0.5435E+00  0.1015E+00
    -16.666  0.5384E+00  0.1400E+00
    -16.594  0.4152E+00  0.1697E+00
    -16.523  0.2492E+00  0.1876E+00
    -16.451  0.1165E+00  0.1959E+00
    -16.380  0.4236E-01  0.1989E+00
    -16.308  0.1199E-01  0.1998E+00
    -16.237  0.2641E-02  0.2000E+00
    -16.165  0.4525E-03  0.2000E+00
    -16.093  0.6030E-04  0.2000E+00
    -16.022  0.6250E-05  0.2000E+00
    -15.950  0.5036E-06  0.2000E+00
    -15.879  0.3154E-07  0.2000E+00
    -15.807  0.1536E-08  0.2000E+00
    -15.736  0.5808E-10  0.2000E+00
    -15.664  0.1707E-11  0.2000E+00
    -15.593  0.3911E-13  0.2000E+00
    -15.521  0.6209E-15  0.2000E+00
    -15.450  0.0000E+00  0.2000E+00
    -15.378  0.0000E+00  0.2000E+00
    -15.307  0.0000E+00  0.2000E+00
    -15.235  0.0000E+00  0.2000E+00
    -15.164  0.0000E+00  0.2000E+00
    -15.092  0.0000E+00  0.2000E+00
    -15.021  0.0000E+00  0.2000E+00
    -14.949  0.0000E+00  0.2000E+00
    -14.878  0.0000E+00  0.2000E+00
    -14.806  0.0000E+00  0.2000E+00
    -14.734  0.0000E+00  0.2000E+00
    -14.663  0.0000E+00  0.2000E+00
    -14.591  0.0000E+00  0.2000E+00
    -14.520  0.0000E+00  0.2000E+00
    -14.448  0.0000E+00  0.2000E+00
    -14.377  0.0000E+00  0.2000E+00
    -14.305  0.0000E+00  0.2000E+00
    -14.234  0.0000E+00  0.2000E+00
    -14.162  0.0000E+00  0.2000E+00
    -14.091  0.0000E+00  0.2000E+00
    -14.019  0.0000E+00  0.2000E+00
    -13.948  0.0000E+00  0.2000E+00
    -13.876  0.0000E+00  0.2000E+00
    -13.805  0.0000E+00  0.2000E+00
    -13.733  0.0000E+00  0.2000E+00
    -13.662  0.0000E+00  0.2000E+00
    -13.590  0.0000E+00  0.2000E+00
    -13.519  0.0000E+00  0.2000E+00
    -13.447  0.0000E+00  0.2000E+00
    -13.375  0.0000E+00  0.2000E+00
    -13.304  0.0000E+00  0.2000E+00
    -13.232  0.0000E+00  0.2000E+00
    -13.161  0.0000E+00  0.2000E+00
    -13.089  0.0000E+00  0.2000E+00
    -13.018  0.0000E+00  0.2000E+00
    -12.946  0.0000E+00  0.2000E+00
    -12.875  0.0000E+00  0.2000E+00
    -12.803  0.0000E+00  0.2000E+00
    -12.732  0.0000E+00  0.2000E+00
    -12.660  0.0000E+00  0.2000E+00
    -12.589  0.0000E+00  0.2000E+00
    -12.517  0.0000E+00  0.2000E+00
    -12.446  0.0000E+00  0.2000E+00
    -12.374  0.0000E+00  0.2000E+00
    -12.303  0.0000E+00  0.2000E+00
    -12.231  0.0000E+00  0.2000E+00
    -12.160  0.0000E+00  0.2000E+00
    -12.088  0.0000E+00  0.2000E+00
    -12.016  0.0000E+00  0.2000E+00
    -11.945  0.0000E+00  0.2000E+00
    -11.873  0.0000E+00  0.2000E+00
    -11.802  0.0000E+00  0.2000E+00
    -11.730  0.0000E+00  0.2000E+00
    -11.659  0.0000E+00  0.2000E+00
    -11.587  0.0000E+00  0.2000E+00
    -11.516  0.0000E+00  0.2000E+00
    -11.444  0.0000E+00  0.2000E+00
    -11.373  0.0000E+00  0.2000E+00
    -11.301  0.0000E+00  0.2000E+00
    -11.230  0.0000E+00  0.2000E+00
    -11.158  0.0000E+00  0.2000E+00
    -11.087  0.0000E+00  0.2000E+00
    -11.015  0.0000E+00  0.2000E+00
    -10.944  0.0000E+00  0.2000E+00
    -10.872  0.0000E+00  0.2000E+00
    -10.801  0.0000E+00  0.2000E+00
    -10.729  0.0000E+00  0.2000E+00
    -10.657  0.0000E+00  0.2000E+00
    -10.586  0.0000E+00  0.2000E+00
    -10.514  0.0000E+00  0.2000E+00
    -10.443  0.0000E+00  0.2000E+00
    -10.371  0.4501E-14  0.2000E+00
    -10.300  0.2253E-12  0.2000E+00
    -10.228  0.9039E-11  0.2000E+00
    -10.157  0.2822E-09  0.2000E+00
    -10.085  0.6866E-08  0.2000E+00
    -10.014  0.1302E-06  0.2000E+00
     -9.942  0.1928E-05  0.2000E+00
     -9.871  0.2229E-04  0.2000E+00
     -9.799  0.2016E-03  0.2000E+00
     -9.728  0.1426E-02  0.2001E+00
     -9.656  0.7912E-02  0.2007E+00
     -9.585  0.3445E-01  0.2031E+00
     -9.513  0.1179E+00  0.2116E+00
     -9.442  0.3180E+00  0.2343E+00
     -9.370  0.6765E+00  0.2827E+00
     -9.298  0.1138E+01  0.3641E+00
     -9.227  0.1515E+01  0.4724E+00
     -9.155  0.1599E+01  0.5868E+00
     -9.084  0.1339E+01  0.6826E+00
     -9.012  0.8900E+00  0.7462E+00
     -8.941  0.4694E+00  0.7798E+00
     -8.869  0.1962E+00  0.7938E+00
     -8.798  0.6493E-01  0.7985E+00
     -8.726  0.1698E-01  0.7997E+00
     -8.655  0.3501E-02  0.8000E+00
     -8.583  0.5683E-03  0.8000E+00
     -8.512  0.7246E-04  0.8000E+00
     -8.440  0.7245E-05  0.8000E+00
     -8.369  0.5671E-06  0.8000E+00
     -8.297  0.3469E-07  0.8000E+00
     -8.226  0.1657E-08  0.8000E+00
     -8.154  0.6173E-10  0.8000E+00
     -8.083  0.1792E-11  0.8000E+00
     -8.011  0.4028E-13  0.8000E+00
     -7.939  0.6209E-15  0.8000E+00
     -7.868  0.0000E+00  0.8000E+00
     -7.796  0.0000E+00  0.8000E+00
     -7.725  0.0000E+00  0.8000E+00
     -7.653  0.0000E+00  0.8000E+00
     -7.582  0.0000E+00  0.8000E+00
     -7.510  0.0000E+00  0.8000E+00
     -7.439  0.0000E+00  0.8000E+00
     -7.367  0.0000E+00  0.8000E+00
     -7.296  0.0000E+00  0.8000E+00
     -7.224  0.0000E+00  0.8000E+00
     -7.153  0.0000E+00  0.8000E+00
     -7.081  0.0000E+00  0.8000E+00
     -7.010  0.0000E+00  0.8000E+00
     -6.938  0.0000E+00  0.8000E+00
     -6.867  0.0000E+00  0.8000E+00
     -6.795  0.0000E+00  0.8000E+00
     -6.724  0.0000E+00  0.8000E+00
     -6.652  0.0000E+00  0.8000E+00
     -6.580  0.0000E+00  0.8000E+00
     -6.509  0.0000E+00  0.8000E+00
     -6.437  0.0000E+00  0.8000E+00
     -6.366  0.0000E+00  0.8000E+00
     -6.294  0.0000E+00  0.8000E+00
     -6.223  0.0000E+00  0.8000E+00
     -6.151  0.0000E+00  0.8000E+00
     -6.080  0.0000E+00  0.8000E+00
     -6.008  0.0000E+00  0.8000E+00
     -5.937  0.0000E+00  0.8000E+00
     -5.865  0.0000E+00  0.8000E+00
     -5.794  0.0000E+00  0.8000E+00
     -5.722  0.0000E+00  0.8000E+00
     -5.651  0.0000E+00  0.8000E+00
     -5.579  0.0000E+00  0.8000E+00
     -5.508  0.0000E+00  0.8000E+00
     -5.436  0.0000E+00  0.8000E+00
     -5.365  0.0000E+00  0.8000E+00
     -5.293  0.0000E+00  0.8000E+00
     -5.221  0.0000E+00  0.8000E+00
     -5.150  0.0000E+00  0.8000E+00
     -5.078  0.0000E+00  0.8000E+00
     -5.007  0.0000E+00  0.8000E+00
     -4.935  0.0000E+00  0.8000E+00
     -4.864  0.0000E+00  0.8000E+00
     -4.792  0.0000E+00  0.8000E+00
     -4.721  0.0000E+00  0.8000E+00
     -4.649  0.0000E+00  0.8000E+00
     -4.578  0.0000E+00  0.8000E+00
     -4.506  0.0000E+00  0.8000E+00
     -4.435  0.0000E+00  0.8000E+00
     -4.363  0.0000E+00  0.8000E+00
     -4.292  0.0000E+00  0.8000E+00
     -4.220  0.0000E+00  0.8000E+00
     -4.149  0.0000E+00  0.8000E+00
     -4.077  0.0000E+00  0.8000E+00
     -4.006  0.0000E+00  0.8000E+00
     -3.934  0.0000E+00  0.8000E+00
     -3.862  0.0000E+00  0.8000E+00
     -3.791  0.0000E+00  0.8000E+00
     -3.719  0.0000E+00  0.8000E+00
     -3.648  0.0000E+00  0.8000E+00
     -3.576  0.0000E+00  0.8000E+00
     -3.505  0.0000E+00  0.8000E+00
     -3.433  0.0000E+00  0.8000E+00
     -3.362  0.0000E+00  0.8000E+00
     -3.290  0.0000E+00  0.8000E+00
     -3.219  0.0000E+00  0.8000E+00
     -3.147  0.0000E+00  0.8000E+00
     -3.076  0.0000E+00  0.8000E+00
     -3.004  0.0000E+00  0.8000E+00
     -2.933  0.0000E+00  0.8000E+00
     -2.861  0.0000E+00  0.8000E+00
     -2.790  0.0000E+00  0.8000E+00
     -2.718  0.0000E+00  0.8000E+00
     -2.647  0.0000E+00  0.8000E+00
     -2.575  0.0000E+00  0.8000E+00
     -2.503  0.0000E+00  0.8000E+00
     -2.432  0.0000E+00  0.8000E+00
     -2.360  0.0000E+00  0.8000E+00
     -2.289  0.0000E+00  0.8000E+00
     -2.217  0.0000E+00  0.8000E+00
     -2.146  0.0000E+00  0.8000E+00
     -2.074  0.0000E+00  0.8000E+00
     -2.003  0.0000E+00  0.8000E+00
     -1.931  0.0000E+00  0.8000E+00
     -1.860  0.0000E+00  0.8000E+00
     -1.788  0.0000E+00  0.8000E+00
     -1.717  0.0000E+00  0.8000E+00
     -1.645  0.0000E+00  0.8000E+00
     -1.574  0.0000E+00  0.8000E+00
     -1.502  0.1552E-15  0.8000E+00
     -1.431  0.1226E-13  0.8000E+00
     -1.359  0.5766E-12  0.8000E+00
     -1.287  0.2114E-10  0.8000E+00
     -1.216  0.6018E-09  0.8000E+00
     -1.144  0.1331E-07  0.8000E+00
     -1.073  0.2289E-06  0.8000E+00
     -1.001  0.3059E-05  0.8000E+00
     -0.930  0.3178E-04  0.8000E+00
     -0.858  0.2568E-03  0.8000E+00
     -0.787  0.1613E-02  0.8001E+00
     -0.715  0.7887E-02  0.8007E+00
     -0.644  0.3000E-01  0.8028E+00
     -0.572  0.8879E-01  0.8092E+00
     -0.501  0.2045E+00  0.8238E+00
     -0.429  0.3667E+00  0.8501E+00
     -0.358  0.5119E+00  0.8867E+00
     -0.286  0.5563E+00  0.9265E+00
     -0.215  0.4706E+00  0.9601E+00
     -0.143  0.3099E+00  0.9823E+00
     -0.072  0.1589E+00  0.9936E+00
     -0.000  0.6342E-01  0.9982E+00
      0.072  0.1995E-01  0.9996E+00
      0.143  0.6506E-02  0.1000E+01
      0.215  0.9917E-02  0.1001E+01
      0.286  0.3695E-01  0.1003E+01
      0.358  0.1195E+00  0.1012E+01
      0.429  0.3097E+00  0.1034E+01
      0.501  0.6440E+00  0.1080E+01
      0.572  0.1077E+01  0.1157E+01
      0.644  0.1451E+01  0.1261E+01
      0.715  0.1572E+01  0.1373E+01
      0.787  0.1365E+01  0.1471E+01
      0.858  0.9469E+00  0.1539E+01
      0.930  0.5223E+00  0.1576E+01
      1.001  0.2280E+00  0.1592E+01
      1.073  0.7853E-01  0.1598E+01
      1.144  0.2126E-01  0.1600E+01
      1.216  0.4515E-02  0.1600E+01
      1.287  0.7506E-03  0.1600E+01
      1.359  0.9751E-04  0.1600E+01
      1.431  0.9890E-05  0.1600E+01
      1.502  0.7824E-06  0.1600E+01
      1.574  0.4824E-07  0.1600E+01
      1.645  0.2317E-08  0.1600E+01
      1.717  0.8664E-10  0.1600E+01
      1.788  0.2521E-11  0.1600E+01
      1.860  0.5743E-13  0.1600E+01
      1.931  0.6985E-15  0.1600E+01
      2.003  0.0000E+00  0.1600E+01
      2.074  0.0000E+00  0.1600E+01
      2.146  0.0000E+00  0.1600E+01
      2.217  0.0000E+00  0.1600E+01
      2.289  0.0000E+00  0.1600E+01
      2.360  0.0000E+00  0.1600E+01
      2.432  0.0000E+00  0.1600E+01
      2.503  0.0000E+00  0.1600E+01
      2.575  0.0000E+00  0.1600E+01
      2.646  0.0000E+00  0.1600E+01
      2.718  0.0000E+00  0.1600E+01
