       N       E                     dE             d eps       ncg     rms          rms(c)
DAV:   1     0.141659069127E+02    0.14166E+02   -0.20232E+03    96   0.418E+02
DAV:   2    -0.233089807529E+02   -0.37475E+02   -0.37475E+02    64   0.116E+02
DAV:   3    -0.276263735674E+02   -0.43174E+01   -0.43174E+01    64   0.457E+01
DAV:   4    -0.277882926111E+02   -0.16192E+00   -0.16192E+00   128   0.997E+00
DAV:   5    -0.277883403564E+02   -0.47745E-04   -0.47745E-04    96   0.188E-01    0.904E+00
RMM:   6    -0.246818067211E+02    0.31065E+01   -0.58293E+00    64   0.149E+01    0.444E+00
RMM:   7    -0.241505073577E+02    0.53130E+00   -0.14050E+00    64   0.689E+00    0.234E+00
RMM:   8    -0.240016520600E+02    0.14886E+00   -0.16211E-01    64   0.291E+00    0.223E-01
RMM:   9    -0.239958862608E+02    0.57658E-02   -0.11509E-02    64   0.713E-01    0.200E-01
RMM:  10    -0.239901875002E+02    0.56988E-02   -0.24086E-02    64   0.853E-01    0.289E-01
RMM:  11    -0.239904974507E+02   -0.30995E-03   -0.59566E-03    64   0.491E-01    0.563E-02
RMM:  12    -0.240008450180E+02   -0.10348E-01   -0.53561E-03    64   0.457E-01    0.139E-01
RMM:  13    -0.240010774908E+02   -0.23247E-03   -0.74834E-04    64   0.158E-01    0.720E-02
RMM:  14    -0.240038778265E+02   -0.28003E-02   -0.26866E-03    64   0.320E-01    0.546E-02
RMM:  15    -0.240040401939E+02   -0.16237E-03   -0.25899E-04    64   0.972E-02    0.166E-02
RMM:  16    -0.240042527889E+02   -0.21259E-03   -0.19997E-04    64   0.897E-02    0.168E-02
RMM:  17    -0.240042604142E+02   -0.76253E-05   -0.28722E-05    64   0.315E-02    0.555E-03
RMM:  18    -0.240042790877E+02   -0.18673E-04   -0.11538E-05    64   0.218E-02    0.173E-03
RMM:  19    -0.240042807449E+02   -0.16572E-05   -0.27811E-07    48   0.470E-03    0.132E-03
RMM:  20    -0.240042826438E+02   -0.18989E-05   -0.38235E-07    48   0.383E-03    0.196E-04
RMM:  21    -0.240042828145E+02   -0.17072E-06   -0.38570E-08    44   0.178E-03
    1 T=     1. E= -.24003751E+02 F= -.24004283E+02 E0= -.24004283E+02  EK= 0.53180E-03 SP= 0.00E+00 SK= 0.00E+00
       N       E                     dE             d eps       ncg     rms          rms(c)
DAV:   1    -0.240083800475E+02   -0.40974E-02   -0.51646E-03    96   0.635E-01    0.430E-02
RMM:   2    -0.240083229735E+02    0.57074E-04   -0.17274E-04    64   0.843E-02    0.174E-02
RMM:   3    -0.240083217304E+02    0.12431E-05   -0.62331E-05    64   0.494E-02    0.808E-03
RMM:   4    -0.240083231899E+02   -0.14595E-05   -0.43425E-06    64   0.149E-02    0.239E-03
RMM:   5    -0.240083230585E+02    0.13139E-06   -0.33904E-07    48   0.366E-03
    2 T=     9. E= -.24003838E+02 F= -.24008323E+02 E0= -.24008323E+02  EK= 0.44854E-02 SP= 0.00E+00 SK= 0.00E+00
       N       E                     dE             d eps       ncg     rms          rms(c)
DAV:   1    -0.240149904257E+02   -0.66672E-02   -0.31639E-03    80   0.560E-01    0.855E-03
RMM:   2    -0.240149959800E+02   -0.55543E-05   -0.71898E-05    64   0.733E-02    0.124E-03
RMM:   3    -0.240149968940E+02   -0.91405E-06   -0.33362E-06    56   0.167E-02    0.160E-03
RMM:   4    -0.240149970876E+02   -0.19357E-06   -0.26942E-07    48   0.552E-03
    3 T=    21. E= -.24003976E+02 F= -.24014997E+02 E0= -.24014997E+02  EK= 0.11021E-01 SP= 0.00E+00 SK= 0.00E+00
       N       E                     dE             d eps       ncg     rms          rms(c)
DAV:   1    -0.240220474810E+02   -0.70506E-02   -0.91703E-04    64   0.173E-01    0.656E-03
RMM:   2    -0.240220472978E+02    0.18325E-06   -0.89444E-06    64   0.258E-02    0.381E-03
RMM:   3    -0.240220479781E+02   -0.68027E-06   -0.45095E-06    60   0.131E-02    0.128E-03
RMM:   4    -0.240220480058E+02   -0.27718E-07   -0.24579E-07    48   0.387E-03
    4 T=    35. E= -.24004119E+02 F= -.24022048E+02 E0= -.24022048E+02  EK= 0.17929E-01 SP= 0.00E+00 SK= 0.00E+00
       N       E                     dE             d eps       ncg     rms          rms(c)
DAV:   1    -0.240271770248E+02   -0.51290E-02   -0.11402E-03    64   0.197E-01    0.344E-03
RMM:   2    -0.240271798115E+02   -0.27867E-05   -0.48157E-06    63   0.206E-02    0.187E-03
RMM:   3    -0.240271836463E+02   -0.38348E-05   -0.11980E-06    48   0.795E-03    0.535E-04
RMM:   4    -0.240271850297E+02   -0.13835E-05   -0.13553E-07    48   0.379E-03    0.408E-04
RMM:   5    -0.240271898873E+02   -0.48575E-05   -0.20083E-07    48   0.274E-03    0.559E-04
RMM:   6    -0.240271909930E+02   -0.11057E-05    0.00000E+00    32   0.147E-03    0.340E-04
RMM:   7    -0.240271932783E+02   -0.22854E-05   -0.56977E-07    48   0.460E-03    0.992E-04
RMM:   8    -0.240271935992E+02   -0.32089E-06   -0.12152E-07    48   0.225E-03
    5 T=    44. E= -.24004215E+02 F= -.24027194E+02 E0= -.24027194E+02  EK= 0.22979E-01 SP= 0.00E+00 SK= 0.00E+00
       N       E                     dE             d eps       ncg     rms          rms(c)
DAV:   1    -0.240288933340E+02   -0.17001E-02   -0.12164E-03    64   0.206E-01    0.466E-03
RMM:   2    -0.240288948378E+02   -0.15038E-05   -0.61287E-06    64   0.210E-02    0.199E-03
RMM:   3    -0.240288964521E+02   -0.16142E-05   -0.13755E-06    48   0.850E-03    0.532E-04
RMM:   4    -0.240288969741E+02   -0.52206E-06   -0.17641E-07    48   0.401E-03
    6 T=    48. E= -.24004232E+02 F= -.24028897E+02 E0= -.24028897E+02  EK= 0.24665E-01 SP= 0.00E+00 SK= 0.00E+00
       N       E                     dE             d eps       ncg     rms          rms(c)
DAV:   1    -0.240267910261E+02    0.21054E-02   -0.13283E-03    64   0.207E-01    0.111E-03
RMM:   2    -0.240267922569E+02   -0.12307E-05   -0.51121E-06    60   0.267E-02    0.111E-03
RMM:   3    -0.240267925311E+02   -0.27422E-06   -0.12755E-07    48   0.321E-03    0.937E-04
RMM:   4    -0.240267939571E+02   -0.14260E-05   -0.16739E-07    48   0.293E-03    0.306E-04
RMM:   5    -0.240267941025E+02   -0.14543E-06    0.00000E+00    32   0.128E-03
    7 T=    44. E= -.24004176E+02 F= -.24026794E+02 E0= -.24026794E+02  EK= 0.22618E-01 SP= 0.00E+00 SK= 0.00E+00
       N       E                     dE             d eps       ncg     rms          rms(c)
DAV:   1    -0.240216716063E+02    0.51224E-02   -0.11803E-03    96   0.191E-01    0.274E-03
RMM:   2    -0.240216745571E+02   -0.29507E-05   -0.93720E-06    64   0.320E-02    0.184E-03
RMM:   3    -0.240216768388E+02   -0.22818E-05   -0.68782E-07    48   0.703E-03    0.629E-04
RMM:   4    -0.240216784071E+02   -0.15682E-05   -0.17260E-07    48   0.400E-03    0.372E-04
RMM:   5    -0.240216809966E+02   -0.25895E-05   -0.70868E-08    48   0.215E-03    0.215E-04
RMM:   6    -0.240216820230E+02   -0.10264E-05    0.00000E+00    32   0.151E-03    0.195E-04
RMM:   7    -0.240216826120E+02   -0.58899E-06   -0.14733E-07    48   0.241E-03
    8 T=    34. E= -.24004069E+02 F= -.24021683E+02 E0= -.24021683E+02  EK= 0.17613E-01 SP= 0.00E+00 SK= 0.00E+00
       N       E                     dE             d eps       ncg     rms          rms(c)
DAV:   1    -0.240151826538E+02    0.64994E-02   -0.72428E-04    88   0.155E-01    0.272E-03
RMM:   2    -0.240151850893E+02   -0.24355E-05   -0.76103E-06    61   0.282E-02    0.125E-03
RMM:   3    -0.240151862328E+02   -0.11435E-05   -0.20477E-07    48   0.412E-03    0.865E-04
RMM:   4    -0.240151883710E+02   -0.21382E-05   -0.44843E-08    43   0.228E-03    0.180E-04
RMM:   5    -0.240151893561E+02   -0.98511E-06   -0.32800E-08    38   0.153E-03
    9 T=    22. E= -.24003943E+02 F= -.24015189E+02 E0= -.24015189E+02  EK= 0.11247E-01 SP= 0.00E+00 SK= 0.00E+00
       N       E                     dE             d eps       ncg     rms          rms(c)
DAV:   1    -0.240092521686E+02    0.59362E-02   -0.39635E-04    64   0.120E-01    0.145E-03
RMM:   2    -0.240092528584E+02   -0.68985E-06   -0.67518E-06    58   0.263E-02    0.129E-03
RMM:   3    -0.240092528613E+02   -0.28749E-08   -0.18139E-07    48   0.413E-03    0.108E-03
RMM:   4    -0.240092529187E+02   -0.57428E-07   -0.18351E-07    48   0.326E-03
   10 T=    10. E= -.24003833E+02 F= -.24009253E+02 E0= -.24009253E+02  EK= 0.54197E-02 SP= 0.00E+00 SK= 0.00E+00
