 vasp.5.4.4.18Apr17-6-g9f103f2a35 (build Nov 25 2021 15:25:00) complex          
  
 executed on             LinuxIFC date 2022.02.21  10:17:09
 running on   16 total cores
 distrk:  each k-point on   16 cores,    1 groups
 distr:  one band on NCORES_PER_BAND=   4 cores,    4 groups


--------------------------------------------------------------------------------------------------------


 INCAR:
 POTCAR:    PAW_PBE H 15Jun2001                   
 POTCAR:    PAW_PBE C 08Apr2002                   
 POTCAR:    PAW_PBE H 15Jun2001                   
   VRHFIN =H: ultrasoft test                                                    
   LEXCH  = PE                                                                  
   EATOM  =    12.4884 eV,    0.9179 Ry                                         
                                                                                
   TITEL  = PAW_PBE H 15Jun2001                                                 
   LULTRA =        F    use ultrasoft PP ?                                      
   IUNSCR =        0    unscreen: 0-lin 1-nonlin 2-no                           
   RPACOR =    0.000    partial core radius                                     
   POMASS =    1.000; ZVAL   =    1.000    mass and valenz                      
   RCORE  =    1.100    outmost cutoff radius                                   
   RWIGS  =    0.700; RWIGS  =    0.370    wigner-seitz radius (au A)           
   ENMAX  =  250.000; ENMIN  =  200.000 eV                                      
   RCLOC  =    0.701    cutoff for local pot                                    
   LCOR   =        T    correct aug charges                                     
   LPAW   =        T    paw PP                                                  
   EAUG   =  400.000                                                            
   RMAX   =    1.123    core radius for proj-oper                               
   RAUG   =    1.200    factor for augmentation sphere                          
   RDEP   =    1.112    radius for radial grids                                 
   RDEPT  =    0.926    core radius for aug-charge                              
                                                                                
   Atomic configuration                                                         
    2 entries                                                                   
     n  l   j            E        occ.                                          
     1  0  0.50        -6.4927   1.0000                                         
     2  1  0.50        -3.4015   0.0000                                         
   Description                                                                  
     l       E           TYP  RCUT    TYP  RCUT                                 
     0     -6.4927494     23  1.100                                             
     0      6.8029130     23  1.100                                             
     1     -4.0817478     23  1.100                                             
  local pseudopotential read in
  atomic valenz-charges read in
  non local Contribution for L=           0  read in
    real space projection operators read in
  non local Contribution for L=           0  read in
    real space projection operators read in
  non local Contribution for L=           1  read in
    real space projection operators read in
    PAW grid and wavefunctions read in
 
   number of l-projection  operators is LMAX  =           3
   number of lm-projection operators is LMMAX =           5
 
 POTCAR:    PAW_PBE C 08Apr2002                   
   VRHFIN =C: s2p2                                                              
   LEXCH  = PE                                                                  
   EATOM  =   147.1560 eV,   10.8157 Ry                                         
                                                                                
   TITEL  = PAW_PBE C 08Apr2002                                                 
   LULTRA =        F    use ultrasoft PP ?                                      
   IUNSCR =        1    unscreen: 0-lin 1-nonlin 2-no                           
   RPACOR =    1.200    partial core radius                                     
   POMASS =   12.011; ZVAL   =    4.000    mass and valenz                      
   RCORE  =    1.500    outmost cutoff radius                                   
   RWIGS  =    1.630; RWIGS  =    0.863    wigner-seitz radius (au A)           
   ENMAX  =  400.000; ENMIN  =  300.000 eV                                      
   ICORE  =        2    local potential                                         
   LCOR   =        T    correct aug charges                                     
   LPAW   =        T    paw PP                                                  
   EAUG   =  644.873                                                            
   DEXC   =    0.000                                                            
   RMAX   =    1.529    core radius for proj-oper                               
   RAUG   =    1.300    factor for augmentation sphere                          
   RDEP   =    1.501    radius for radial grids                                 
   RDEPT  =    1.300    core radius for aug-charge                              
                                                                                
   Atomic configuration                                                         
    4 entries                                                                   
     n  l   j            E        occ.                                          
     1  0  0.50      -273.3789   2.0000                                         
     2  0  0.50       -13.7508   2.0000                                         
     2  1  0.50        -5.2854   2.0000                                         
     3  2  1.50        -5.4423   0.0000                                         
   Description                                                                  
     l       E           TYP  RCUT    TYP  RCUT                                 
     0    -13.7508458     23  1.200                                             
     0     -8.2022199     23  1.200                                             
     1     -5.2854383     23  1.500                                             
     1     34.0145650     23  1.500                                             
     2     -5.4423304      7  1.500                                             
  local pseudopotential read in
  partial core-charges read in
  partial kinetic energy density read in
  atomic valenz-charges read in
  non local Contribution for L=           0  read in
    real space projection operators read in
  non local Contribution for L=           0  read in
    real space projection operators read in
  non local Contribution for L=           1  read in
    real space projection operators read in
  non local Contribution for L=           1  read in
    real space projection operators read in
    PAW grid and wavefunctions read in
 
   number of l-projection  operators is LMAX  =           4
   number of lm-projection operators is LMMAX =           8
 
  PAW_PBE H 15Jun2001                   :
 energy of atom  1       EATOM=  -12.4884
 kinetic energy error for atom=    0.0098 (will be added to EATOM!!)
  PAW_PBE C 08Apr2002                   :
 energy of atom  2       EATOM= -147.1560
 kinetic energy error for atom=    0.0288 (will be added to EATOM!!)
 
 
 POSCAR:  H  C                                   
  positions in cartesian coordinates
  No initial velocities read in
 exchange correlation table for  LEXCH =        8
   RHO(1)=    0.500       N(1)  =     2000
   RHO(2)=  100.500       N(2)  =     4000

 VTST: version 3.2, (02/03/18)

 CHAIN: initializing optimizer
 
 OPT: Using VASP Dynamics algorithm
 CHAIN: Read ICHAIN            0
 
 POSCAR:  H  C                                   
  positions in cartesian coordinates
  No initial velocities read in
 


--------------------------------------------------------------------------------------------------------


 ion  position               nearest neighbor table
   1  0.538  0.407  0.360-   5 1.08
   2  0.395  0.481  0.439-   5 1.07
   3  0.552  0.566  0.442-   5 1.09
   4  0.528  0.417  0.539-   5 1.08
   5  0.503  0.467  0.445-   2 1.07   1 1.08   4 1.08   3 1.09
 

IMPORTANT INFORMATION: All symmetrisations will be switched off!
NOSYMM: (Re-)initialisation of all symmetry stuff for point group C_1.

 
 

Automatic generation of k-mesh.
 generate k-points for:    2    2    2
Space group operators:
 irot       det(A)        alpha          n_x          n_y          n_z        tau_x        tau_y        tau_z
    1     1.000000     0.000000     1.000000     0.000000     0.000000     0.000000     0.000000     0.000000
 
 Subroutine IBZKPT returns following result:
 ===========================================
 
 Found      4 irreducible k-points:
 
 Following reciprocal coordinates:
            Coordinates               Weight
  0.250000  0.250000  0.250000      2.000000
 -0.250000  0.250000  0.250000      2.000000
  0.250000 -0.250000  0.250000      2.000000
 -0.250000 -0.250000  0.250000      2.000000
 
 Following cartesian coordinates:
            Coordinates               Weight
  0.025592  0.025185  0.025671      2.000000
 -0.025592  0.025096  0.025429      2.000000
  0.025592 -0.025096  0.025601      2.000000
 -0.025592 -0.025185  0.025359      2.000000
 


--------------------------------------------------------------------------------------------------------




 Dimension of arrays:
   k-points           NKPTS =      4   k-points in BZ     NKDIM =      4   number of bands    NBANDS=      8
   number of dos      NEDOS =    301   number of ions     NIONS =      5
   non local maximal  LDIM  =      4   non local SUM 2l+1 LMDIM =      8
   total plane-waves  NPLWV = 286720
   max r-space proj   IRMAX =      1   max aug-charges    IRDMAX=   3754
   dimension x,y,z NGX =    64 NGY =   70 NGZ =   64
   dimension x,y,z NGXF=   128 NGYF=  140 NGZF=  128
   support grid    NGXF=   128 NGYF=  140 NGZF=  128
   ions per type =               4   1
   NGX,Y,Z   is equivalent  to a cutoff of  10.89, 11.70, 10.86 a.u.
   NGXF,Y,Z  is equivalent  to a cutoff of  21.78, 23.41, 21.72 a.u.

 SYSTEM =  unknown system                          
 POSCAR =   H  C                                   

 Startparameter for this run:
   NWRITE =      2    write-flag & timer
   PREC   = a         normal or accurate (medium, high low for compatibility)
   ISTART =      0    job   : 0-new  1-cont  2-samecut
   ICHARG =      2    charge: 1-file 2-atom 10-const
   ISPIN  =      1    spin polarized calculation?
   LNONCOLLINEAR =      F non collinear calculations
   LSORBIT =      F    spin-orbit coupling
   INIWAV =      1    electr: 0-lowe 1-rand  2-diag
   LASPH  =      F    aspherical Exc in radial PAW
   METAGGA=      F    non-selfconsistent MetaGGA calc.

 Electronic Relaxation 1
   ENCUT  =  400.0 eV  29.40 Ry    5.42 a.u.  15.93 16.22 15.98*2*pi/ulx,y,z
   ENINI  =  400.0     initial cutoff
   ENAUG  =  644.9 eV  augmentation charge cutoff
   NELM   =    120;   NELMIN=  4; NELMDL= -5     # of ELM steps 
   EDIFF  = 0.1E-05   stopping-criterion for ELM
   LREAL  =      F    real-space projection
   NLSPLINE    = F    spline interpolate recip. space projectors
   LCOMPAT=      F    compatible to vasp.4.4
   GGA_COMPAT  = T    GGA compatible to vasp.4.4-vasp.4.6
   LMAXPAW     = -100 max onsite density
   LMAXMIX     =    2 max onsite mixed and CHGCAR
   VOSKOWN=      0    Vosko Wilk Nusair interpolation
   ROPT   =    0.00000   0.00000
 Ionic relaxation
   EDIFFG = 0.1E-04   stopping-criterion for IOM
   NSW    =     10    number of steps for IOM
   NBLOCK =      1;   KBLOCK =     10    inner block; outer block 
   IBRION =      0    ionic relax: 0-MD 1-quasi-New 2-CG
   NFREE  =      0    steps in history (QN), initial steepest desc. (CG)
   ISIF   =      2    stress and relaxation
   IWAVPR =     12    prediction:  0-non 1-charg 2-wave 3-comb
   ISYM   =      0    0-nonsym 1-usesym 2-fastsym
   LCORR  =      T    Harris-Foulkes like correction to forces

   POTIM  = 0.5000    time-step for ionic-motion
   TEIN   =    0.0    initial temperature
   TEBEG  =    0.0;   TEEND  =   0.0 temperature during run
   SMASS  =  -3.00    Nose mass-parameter (am)
   estimated Nose-frequenzy (Omega)   =  0.10E-29 period in steps =****** mass=  -0.218E-26a.u.
   SCALEE = 1.0000    scale energy and forces
   NPACO  =    256;   APACO  = 16.0  distance and # of slots for P.C.
   PSTRESS=    0.0 pullay stress

  Mass of Ions in am
   POMASS =   1.00 12.01
  Ionic Valenz
   ZVAL   =   1.00  4.00
  Atomic Wigner-Seitz radii
   RWIGS  =  -1.00 -1.00
  virtual crystal weights 
   VCA    =   1.00  1.00
   NELECT =       8.0000    total number of electrons
   NUPDOWN=      -1.0000    fix difference up-down

 DOS related values:
   EMIN   =  10.00;   EMAX   =-10.00  energy-range for DOS
   EFERMI =   0.00
   ISMEAR =     0;   SIGMA  =   0.20  broadening in eV -4-tet -1-fermi 0-gaus

 Electronic relaxation 2 (details)
   IALGO  =     68    algorithm
   LDIAG  =      T    sub-space diagonalisation (order eigenvalues)
   LSUBROT=      F    optimize rotation matrix (better conditioning)
   TURBO    =      0    0=normal 1=particle mesh
   IRESTART =      0    0=no restart 2=restart with 2 vectors
   NREBOOT  =      0    no. of reboots
   NMIN     =      0    reboot dimension
   EREF     =   0.00    reference energy to select bands
   IMIX   =      4    mixing-type and parameters
     AMIX     =   0.40;   BMIX     =  1.00
     AMIX_MAG =   1.60;   BMIX_MAG =  1.00
     AMIN     =   0.10
     WC   =   100.;   INIMIX=   1;  MIXPRE=   1;  MAXMIX= -45

 Intra band minimization:
   WEIMIN = 0.0010     energy-eigenvalue tresh-hold
   EBREAK =  0.31E-07  absolut break condition
   DEPER  =   0.30     relativ break condition  

   TIME   =   0.40     timestep for ELM

  volume/ion in A,a.u.               =     190.36      1284.61
  Fermi-wavevector in a.u.,A,eV,Ry     =   0.332856  0.629007  1.507431  0.110793
  Thomas-Fermi vector in A             =   1.230218
 
 Write flags
   LWAVE        =      F    write WAVECAR
   LDOWNSAMPLE  =      F    k-point downsampling of WAVECAR
   LCHARG       =      F    write CHGCAR
   LVTOT        =      F    write LOCPOT, total local potential
   LVHAR        =      F    write LOCPOT, Hartree potential only
   LELF         =      F    write electronic localiz. function (ELF)
   LORBIT       =      0    0 simple, 1 ext, 2 COOP (PROOUT), +10 PAW based schemes


 Dipole corrections
   LMONO  =      F    monopole corrections only (constant potential shift)
   LDIPOL =      F    correct potential (dipole corrections)
   IDIPOL =      0    1-x, 2-y, 3-z, 4-all directions 
   EPSILON=  1.0000000 bulk dielectric constant

 Exchange correlation treatment:
   GGA     =    --    GGA type
   LEXCH   =     8    internal setting for exchange type
   VOSKOWN=      0    Vosko Wilk Nusair interpolation
   LHFCALC =     F    Hartree Fock is set to
   LHFONE  =     F    Hartree Fock one center treatment
   AEXX    =    0.0000 exact exchange contribution

 Linear response parameters
   LEPSILON=     F    determine dielectric tensor
   LRPA    =     F    only Hartree local field effects (RPA)
   LNABLA  =     F    use nabla operator in PAW spheres
   LVEL    =     F    velocity operator in full k-point grid
   LINTERFAST=   F  fast interpolation
   KINTER  =     0    interpolate to denser k-point grid
   CSHIFT  =0.1000    complex shift for real part using Kramers Kronig
   OMEGAMAX=  -1.0    maximum frequency
   DEG_THRESHOLD= 0.2000000E-02 threshold for treating states as degnerate
   RTIME   =   -0.100 relaxation time in fs
  (WPLASMAI=    0.000 imaginary part of plasma frequency in eV, 0.658/RTIME)
   DFIELD  = 0.0000000 0.0000000 0.0000000 field for delta impulse in time
 
 Orbital magnetization related:
   ORBITALMAG=     F  switch on orbital magnetization
   LCHIMAG   =     F  perturbation theory with respect to B field
   DQ        =  0.001000  dq finite difference perturbation B field
   LLRAUG    =     F  two centre corrections for induced B field



--------------------------------------------------------------------------------------------------------


 molecular dynamics for ions
   using a microcanonical ensemble
 charge density and potential will be updated during run
 non-spin polarized calculation
 RMM-DIIS sequential band-by-band and
  variant of blocked Davidson during initial phase
 perform sub-space diagonalisation
    before iterative eigenvector-optimisation
 modified Broyden-mixing scheme, WC =      100.0
 initial mixing is a Kerker type mixing with AMIX =  0.4000 and BMIX =      1.0000
 Hartree-type preconditioning will be used
 using additional bands            4
 reciprocal scheme for non local part
 use partial core corrections
 calculate Harris-corrections to forces 
   (improved forces if not selfconsistent)
 use gradient corrections 
 use of overlap-Matrix (Vanderbilt PP)
 Gauss-broadening in eV      SIGMA  =   0.20


--------------------------------------------------------------------------------------------------------


  energy-cutoff  :      400.00
  volume of cell :      951.80
      direct lattice vectors                 reciprocal lattice vectors
     9.768621201  0.000000000  0.000000000     0.102368592  0.000177956  0.000482648
    -0.017286712  9.944139539  0.000000000     0.000000000  0.100561743  0.000139727
    -0.046172803 -0.013614227  9.798171212     0.000000000  0.000000000  0.102059862

  length of vectors
     9.768621201  9.944154565  9.798289462     0.102369885  0.100561840  0.102059862


 
 k-points in units of 2pi/SCALE and weight: read from INCAR                         
   0.02559215  0.02518492  0.02567056       0.250
  -0.02559215  0.02509595  0.02542924       0.250
   0.02559215 -0.02509595  0.02560070       0.250
  -0.02559215 -0.02518492  0.02535937       0.250
 
 k-points in reciprocal lattice and weights: read from INCAR                         
   0.25000000  0.25000000  0.25000000       0.250
  -0.25000000  0.25000000  0.25000000       0.250
   0.25000000 -0.25000000  0.25000000       0.250
  -0.25000000 -0.25000000  0.25000000       0.250
 
 position of ions in fractional coordinates (direct lattice) 
   0.53779383  0.40715613  0.36006508
   0.39484167  0.48050498  0.43903800
   0.55205580  0.56587531  0.44220420
   0.52809671  0.41654754  0.53924286
   0.50330194  0.46742698  0.44478852
 
 position of ions in cartesian coordinates  (Angst):
   5.22984060  4.04391536  3.52797932
   3.82848076  4.77223136  4.30176949
   5.36262406  5.62112276  4.33279244
   5.12667767  4.13486548  5.28359388
   4.88794855  4.64210367  4.35811408
 


--------------------------------------------------------------------------------------------------------


 k-point  1 :   0.2500 0.2500 0.2500  plane waves:   17280
 k-point  2 :  -0.2500 0.2500 0.2500  plane waves:   17294
 k-point  3 :   0.2500-0.2500 0.2500  plane waves:   17290
 k-point  4 :  -0.2500-0.2500 0.2500  plane waves:   17294

 maximum and minimum number of plane-waves per node :      4355     4286

 maximum number of plane-waves:     17294
 maximum index in each direction: 
   IXMAX=   16   IYMAX=   16   IZMAX=   15
   IXMIN=  -16   IYMIN=  -16   IZMIN=  -16


 parallel 3D FFT for wavefunctions:
    minimum data exchange during FFTs selected (reduces bandwidth)
 parallel 3D FFT for charge:
    minimum data exchange during FFTs selected (reduces bandwidth)


 total amount of memory used by VASP MPI-rank0    51137. kBytes
=======================================================================

   base      :      30000. kBytes
   nonl-proj :       2569. kBytes
   fftplans  :       7000. kBytes
   grid      :      11005. kBytes
   one-center:          6. kBytes
   wavefun   :        557. kBytes
 
     INWAV:  cpu time    0.0000: real time    0.0001
 Broyden mixing: mesh for mixing (old mesh)
   NGX = 31   NGY = 33   NGZ = 31
  (NGX  =128   NGY  =140   NGZ  =128)
  gives a total of  31713 points

 initial charge density was supplied:
 charge density of overlapping atoms calculated
 number of electron       8.0000000 magnetization 
 keeping initial charge density in first step


--------------------------------------------------------------------------------------------------------


 Maximum index for augmentation-charges          283 (set IRDMAX)


--------------------------------------------------------------------------------------------------------


 First call to EWALD:  gamma=   0.180
 Maximum number of real-space cells 3x 3x 3
 Maximum number of reciprocal cells 3x 3x 3

    FEWALD:  cpu time    0.0015: real time    0.0015


--------------------------------------- Iteration      1(   1)  ---------------------------------------


    POTLOK:  cpu time    0.1194: real time    0.1293
    SETDIJ:  cpu time    0.0033: real time    0.0040
     EDDAV:  cpu time    0.1641: real time    0.1905
       DOS:  cpu time    0.0003: real time    0.0011
    --------------------------------------------
      LOOP:  cpu time    0.2872: real time    0.3250

 eigenvalue-minimisations  :    96
 total energy-change (2. order) : 0.1416591E+02  (-0.2023185E+03)
 number of electron       8.0000000 magnetization 
 augmentation part        8.0000000 magnetization 

 Free energy of the ion-electron system (eV)
  ---------------------------------------------------
  alpha Z        PSCENC =         0.25451870
  Ewald energy   TEWEN  =       130.73254645
  -Hartree energ DENC   =      -244.05937501
  -exchange      EXHF   =         0.00000000
  -V(xc)+E(xc)   XCENC  =        22.10748039
  PAW double counting   =       117.05815612     -117.66307307
  entropy T*S    EENTRO =        -0.00000000
  eigenvalues    EBANDS =       -91.30610120
  atomic energy  EATOM  =       197.04175453
  Solvation  Ediel_sol  =         0.00000000
  ---------------------------------------------------
  free energy    TOTEN  =        14.16590691 eV

  energy without entropy =       14.16590691  energy(sigma->0) =       14.16590691


--------------------------------------------------------------------------------------------------------




--------------------------------------- Iteration      1(   2)  ---------------------------------------


     EDDAV:  cpu time    0.1209: real time    0.1249
       DOS:  cpu time    0.0002: real time    0.0002
    --------------------------------------------
      LOOP:  cpu time    0.1211: real time    0.1250

 eigenvalue-minimisations  :    64
 total energy-change (2. order) :-0.3747489E+02  (-0.3747489E+02)
 number of electron       8.0000000 magnetization 
 augmentation part        8.0000000 magnetization 

 Free energy of the ion-electron system (eV)
  ---------------------------------------------------
  alpha Z        PSCENC =         0.25451870
  Ewald energy   TEWEN  =       130.73254645
  -Hartree energ DENC   =      -244.05937501
  -exchange      EXHF   =         0.00000000
  -V(xc)+E(xc)   XCENC  =        22.10748039
  PAW double counting   =       117.05815612     -117.66307307
  entropy T*S    EENTRO =        -0.00000000
  eigenvalues    EBANDS =      -128.78098886
  atomic energy  EATOM  =       197.04175453
  Solvation  Ediel_sol  =         0.00000000
  ---------------------------------------------------
  free energy    TOTEN  =       -23.30898075 eV

  energy without entropy =      -23.30898075  energy(sigma->0) =      -23.30898075


--------------------------------------------------------------------------------------------------------




--------------------------------------- Iteration      1(   3)  ---------------------------------------


     EDDAV:  cpu time    0.1208: real time    0.1244
       DOS:  cpu time    0.0002: real time    0.0002
    --------------------------------------------
      LOOP:  cpu time    0.1210: real time    0.1246

 eigenvalue-minimisations  :    64
 total energy-change (2. order) :-0.4317393E+01  (-0.4317393E+01)
 number of electron       8.0000000 magnetization 
 augmentation part        8.0000000 magnetization 

 Free energy of the ion-electron system (eV)
  ---------------------------------------------------
  alpha Z        PSCENC =         0.25451870
  Ewald energy   TEWEN  =       130.73254645
  -Hartree energ DENC   =      -244.05937501
  -exchange      EXHF   =         0.00000000
  -V(xc)+E(xc)   XCENC  =        22.10748039
  PAW double counting   =       117.05815612     -117.66307307
  entropy T*S    EENTRO =        -0.00000000
  eigenvalues    EBANDS =      -133.09838168
  atomic energy  EATOM  =       197.04175453
  Solvation  Ediel_sol  =         0.00000000
  ---------------------------------------------------
  free energy    TOTEN  =       -27.62637357 eV

  energy without entropy =      -27.62637357  energy(sigma->0) =      -27.62637357


--------------------------------------------------------------------------------------------------------




--------------------------------------- Iteration      1(   4)  ---------------------------------------


     EDDAV:  cpu time    0.2043: real time    0.2112
       DOS:  cpu time    0.0002: real time    0.0002
    --------------------------------------------
      LOOP:  cpu time    0.2045: real time    0.2114

 eigenvalue-minimisations  :   128
 total energy-change (2. order) :-0.1619190E+00  (-0.1619190E+00)
 number of electron       8.0000000 magnetization 
 augmentation part        8.0000000 magnetization 

 Free energy of the ion-electron system (eV)
  ---------------------------------------------------
  alpha Z        PSCENC =         0.25451870
  Ewald energy   TEWEN  =       130.73254645
  -Hartree energ DENC   =      -244.05937501
  -exchange      EXHF   =         0.00000000
  -V(xc)+E(xc)   XCENC  =        22.10748039
  PAW double counting   =       117.05815612     -117.66307307
  entropy T*S    EENTRO =        -0.00000000
  eigenvalues    EBANDS =      -133.26030072
  atomic energy  EATOM  =       197.04175453
  Solvation  Ediel_sol  =         0.00000000
  ---------------------------------------------------
  free energy    TOTEN  =       -27.78829261 eV

  energy without entropy =      -27.78829261  energy(sigma->0) =      -27.78829261


--------------------------------------------------------------------------------------------------------




--------------------------------------- Iteration      1(   5)  ---------------------------------------


     EDDAV:  cpu time    0.1607: real time    0.1654
       DOS:  cpu time    0.0004: real time    0.0004
    CHARGE:  cpu time    0.0157: real time    0.0161
    MIXING:  cpu time    0.0035: real time    0.0036
    --------------------------------------------
      LOOP:  cpu time    0.1804: real time    0.1855

 eigenvalue-minimisations  :    96
 total energy-change (2. order) :-0.4774529E-04  (-0.4774543E-04)
 number of electron       8.0000003 magnetization 
 augmentation part        0.2318602 magnetization 

 Broyden mixing:
  rms(total) = 0.90448E+00    rms(broyden)= 0.90421E+00
  rms(prec ) = 0.12887E+01
  weight for this iteration     100.00

 Free energy of the ion-electron system (eV)
  ---------------------------------------------------
  alpha Z        PSCENC =         0.25451870
  Ewald energy   TEWEN  =       130.73254645
  -Hartree energ DENC   =      -244.05937501
  -exchange      EXHF   =         0.00000000
  -V(xc)+E(xc)   XCENC  =        22.10748039
  PAW double counting   =       117.05815612     -117.66307307
  entropy T*S    EENTRO =        -0.00000000
  eigenvalues    EBANDS =      -133.26034847
  atomic energy  EATOM  =       197.04175453
  Solvation  Ediel_sol  =         0.00000000
  ---------------------------------------------------
  free energy    TOTEN  =       -27.78834036 eV

  energy without entropy =      -27.78834036  energy(sigma->0) =      -27.78834036


--------------------------------------------------------------------------------------------------------




--------------------------------------- Iteration      1(   6)  ---------------------------------------


    POTLOK:  cpu time    0.1094: real time    0.1128
    SETDIJ:  cpu time    0.0016: real time    0.0017
    EDDIAG:  cpu time    0.0350: real time    0.0446
  RMM-DIIS:  cpu time    0.1215: real time    0.1257
    ORTHCH:  cpu time    0.0017: real time    0.0017
       DOS:  cpu time    0.0002: real time    0.0002
    CHARGE:  cpu time    0.0149: real time    0.0153
    MIXING:  cpu time    0.0040: real time    0.0058
    --------------------------------------------
      LOOP:  cpu time    0.2883: real time    0.3078

 eigenvalue-minimisations  :    64
 total energy-change (2. order) : 0.3106534E+01  (-0.5829254E+00)
 number of electron       8.0000002 magnetization 
 augmentation part        0.2043308 magnetization 

 Broyden mixing:
  rms(total) = 0.44354E+00    rms(broyden)= 0.44343E+00
  rms(prec ) = 0.58010E+00
  weight for this iteration     100.00

 eigenvalues of (default mixing * dielectric matrix)
  average eigenvalue GAMMA=   1.3184
  1.3184

 Free energy of the ion-electron system (eV)
  ---------------------------------------------------
  alpha Z        PSCENC =         0.25451870
  Ewald energy   TEWEN  =       130.73254645
  -Hartree energ DENC   =      -264.49811556
  -exchange      EXHF   =         0.00000000
  -V(xc)+E(xc)   XCENC  =        23.34856625
  PAW double counting   =       244.46053615     -245.25025591
  entropy T*S    EENTRO =        -0.00000000
  eigenvalues    EBANDS =      -110.77135734
  atomic energy  EATOM  =       197.04175453
  Solvation  Ediel_sol  =         0.00000000
  ---------------------------------------------------
  free energy    TOTEN  =       -24.68180672 eV

  energy without entropy =      -24.68180672  energy(sigma->0) =      -24.68180672


--------------------------------------------------------------------------------------------------------




--------------------------------------- Iteration      1(   7)  ---------------------------------------


    POTLOK:  cpu time    0.1104: real time    0.1130
    SETDIJ:  cpu time    0.0016: real time    0.0016
    EDDIAG:  cpu time    0.0303: real time    0.0312
  RMM-DIIS:  cpu time    0.1221: real time    0.1258
    ORTHCH:  cpu time    0.0014: real time    0.0014
       DOS:  cpu time    0.0002: real time    0.0002
    CHARGE:  cpu time    0.0142: real time    0.0144
    MIXING:  cpu time    0.0037: real time    0.0038
    --------------------------------------------
      LOOP:  cpu time    0.2840: real time    0.2914

 eigenvalue-minimisations  :    64
 total energy-change (2. order) : 0.5312994E+00  (-0.1404987E+00)
 number of electron       8.0000002 magnetization 
 augmentation part        0.1930566 magnetization 

 Broyden mixing:
  rms(total) = 0.23387E+00    rms(broyden)= 0.23380E+00
  rms(prec ) = 0.28285E+00
  weight for this iteration     100.00

 eigenvalues of (default mixing * dielectric matrix)
  average eigenvalue GAMMA=   1.8482
  1.4795  2.2168

 Free energy of the ion-electron system (eV)
  ---------------------------------------------------
  alpha Z        PSCENC =         0.25451870
  Ewald energy   TEWEN  =       130.73254645
  -Hartree energ DENC   =      -276.88547714
  -exchange      EXHF   =         0.00000000
  -V(xc)+E(xc)   XCENC  =        24.25149822
  PAW double counting   =       382.10078670     -382.93562927
  entropy T*S    EENTRO =        -0.00000000
  eigenvalues    EBANDS =       -98.71050555
  atomic energy  EATOM  =       197.04175453
  Solvation  Ediel_sol  =         0.00000000
  ---------------------------------------------------
  free energy    TOTEN  =       -24.15050736 eV

  energy without entropy =      -24.15050736  energy(sigma->0) =      -24.15050736


--------------------------------------------------------------------------------------------------------




--------------------------------------- Iteration      1(   8)  ---------------------------------------


    POTLOK:  cpu time    0.1107: real time    0.1130
    SETDIJ:  cpu time    0.0016: real time    0.0016
    EDDIAG:  cpu time    0.0314: real time    0.0319
  RMM-DIIS:  cpu time    0.1207: real time    0.1227
    ORTHCH:  cpu time    0.0018: real time    0.0018
       DOS:  cpu time    0.0002: real time    0.0002
    CHARGE:  cpu time    0.0155: real time    0.0157
    MIXING:  cpu time    0.0038: real time    0.0038
    --------------------------------------------
      LOOP:  cpu time    0.2856: real time    0.2908

 eigenvalue-minimisations  :    64
 total energy-change (2. order) : 0.1488553E+00  (-0.1621139E-01)
 number of electron       8.0000002 magnetization 
 augmentation part        0.1916374 magnetization 

 Broyden mixing:
  rms(total) = 0.22330E-01    rms(broyden)= 0.22299E-01
  rms(prec ) = 0.53767E-01
  weight for this iteration     100.00

 eigenvalues of (default mixing * dielectric matrix)
  average eigenvalue GAMMA=   1.5597
  2.2488  1.0005  1.4297

 Free energy of the ion-electron system (eV)
  ---------------------------------------------------
  alpha Z        PSCENC =         0.25451870
  Ewald energy   TEWEN  =       130.73254645
  -Hartree energ DENC   =      -282.29914772
  -exchange      EXHF   =         0.00000000
  -V(xc)+E(xc)   XCENC  =        24.78849611
  PAW double counting   =       499.10793513     -499.90975563
  entropy T*S    EENTRO =        -0.00000000
  eigenvalues    EBANDS =       -93.71799964
  atomic energy  EATOM  =       197.04175453
  Solvation  Ediel_sol  =         0.00000000
  ---------------------------------------------------
  free energy    TOTEN  =       -24.00165206 eV

  energy without entropy =      -24.00165206  energy(sigma->0) =      -24.00165206


--------------------------------------------------------------------------------------------------------




--------------------------------------- Iteration      1(   9)  ---------------------------------------


    POTLOK:  cpu time    0.1107: real time    0.1119
    SETDIJ:  cpu time    0.0016: real time    0.0016
    EDDIAG:  cpu time    0.0308: real time    0.0310
  RMM-DIIS:  cpu time    0.1271: real time    0.1287
    ORTHCH:  cpu time    0.0019: real time    0.0019
       DOS:  cpu time    0.0002: real time    0.0002
    CHARGE:  cpu time    0.0159: real time    0.0161
    MIXING:  cpu time    0.0041: real time    0.0041
    --------------------------------------------
      LOOP:  cpu time    0.2922: real time    0.2954

 eigenvalue-minimisations  :    64
 total energy-change (2. order) : 0.5765799E-02  (-0.1150913E-02)
 number of electron       8.0000002 magnetization 
 augmentation part        0.1910376 magnetization 

 Broyden mixing:
  rms(total) = 0.20033E-01    rms(broyden)= 0.20028E-01
  rms(prec ) = 0.41445E-01
  weight for this iteration     100.00

 eigenvalues of (default mixing * dielectric matrix)
  average eigenvalue GAMMA=   2.1190
  3.1995  2.8784  1.0013  1.3966

 Free energy of the ion-electron system (eV)
  ---------------------------------------------------
  alpha Z        PSCENC =         0.25451870
  Ewald energy   TEWEN  =       130.73254645
  -Hartree energ DENC   =      -283.59717558
  -exchange      EXHF   =         0.00000000
  -V(xc)+E(xc)   XCENC  =        24.86160951
  PAW double counting   =       503.58711667     -504.39149905
  entropy T*S    EENTRO =        -0.00000000
  eigenvalues    EBANDS =       -92.48475749
  atomic energy  EATOM  =       197.04175453
  Solvation  Ediel_sol  =         0.00000000
  ---------------------------------------------------
  free energy    TOTEN  =       -23.99588626 eV

  energy without entropy =      -23.99588626  energy(sigma->0) =      -23.99588626


--------------------------------------------------------------------------------------------------------




--------------------------------------- Iteration      1(  10)  ---------------------------------------


    POTLOK:  cpu time    0.1056: real time    0.1084
    SETDIJ:  cpu time    0.0016: real time    0.0016
    EDDIAG:  cpu time    0.0305: real time    0.0308
  RMM-DIIS:  cpu time    0.1234: real time    0.1272
    ORTHCH:  cpu time    0.0014: real time    0.0014
       DOS:  cpu time    0.0002: real time    0.0002
    CHARGE:  cpu time    0.0139: real time    0.0140
    MIXING:  cpu time    0.0044: real time    0.0058
    --------------------------------------------
      LOOP:  cpu time    0.2811: real time    0.2895

 eigenvalue-minimisations  :    64
 total energy-change (2. order) : 0.5698761E-02  (-0.2408599E-02)
 number of electron       8.0000002 magnetization 
 augmentation part        0.1899781 magnetization 

 Broyden mixing:
  rms(total) = 0.28875E-01    rms(broyden)= 0.28873E-01
  rms(prec ) = 0.36474E-01
  weight for this iteration     100.00

 eigenvalues of (default mixing * dielectric matrix)
  average eigenvalue GAMMA=   1.7774
  3.0787  2.4745  1.1859  1.1859  0.9620

 Free energy of the ion-electron system (eV)
  ---------------------------------------------------
  alpha Z        PSCENC =         0.25451870
  Ewald energy   TEWEN  =       130.73254645
  -Hartree energ DENC   =      -285.81673827
  -exchange      EXHF   =         0.00000000
  -V(xc)+E(xc)   XCENC  =        24.93037767
  PAW double counting   =       486.17704926     -486.98519636
  entropy T*S    EENTRO =        -0.00000000
  eigenvalues    EBANDS =       -90.32449949
  atomic energy  EATOM  =       197.04175453
  Solvation  Ediel_sol  =         0.00000000
  ---------------------------------------------------
  free energy    TOTEN  =       -23.99018750 eV

  energy without entropy =      -23.99018750  energy(sigma->0) =      -23.99018750


--------------------------------------------------------------------------------------------------------




--------------------------------------- Iteration      1(  11)  ---------------------------------------


    POTLOK:  cpu time    0.1054: real time    0.1090
    SETDIJ:  cpu time    0.0018: real time    0.0018
    EDDIAG:  cpu time    0.0302: real time    0.0311
  RMM-DIIS:  cpu time    0.1238: real time    0.1279
    ORTHCH:  cpu time    0.0015: real time    0.0015
       DOS:  cpu time    0.0002: real time    0.0002
    CHARGE:  cpu time    0.0139: real time    0.0143
    MIXING:  cpu time    0.0041: real time    0.0042
    --------------------------------------------
      LOOP:  cpu time    0.2809: real time    0.2901

 eigenvalue-minimisations  :    64
 total energy-change (2. order) :-0.3099505E-03  (-0.5956611E-03)
 number of electron       8.0000002 magnetization 
 augmentation part        0.1902736 magnetization 

 Broyden mixing:
  rms(total) = 0.56318E-02    rms(broyden)= 0.56282E-02
  rms(prec ) = 0.12437E-01
  weight for this iteration     100.00

 eigenvalues of (default mixing * dielectric matrix)
  average eigenvalue GAMMA=   2.2871
  4.8168  3.1496  2.4352  1.3249  0.9980  0.9980

 Free energy of the ion-electron system (eV)
  ---------------------------------------------------
  alpha Z        PSCENC =         0.25451870
  Ewald energy   TEWEN  =       130.73254645
  -Hartree energ DENC   =      -285.72355757
  -exchange      EXHF   =         0.00000000
  -V(xc)+E(xc)   XCENC  =        24.94418225
  PAW double counting   =       495.55140834     -496.35269622
  entropy T*S    EENTRO =        -0.00000000
  eigenvalues    EBANDS =       -90.43865394
  atomic energy  EATOM  =       197.04175453
  Solvation  Ediel_sol  =         0.00000000
  ---------------------------------------------------
  free energy    TOTEN  =       -23.99049745 eV

  energy without entropy =      -23.99049745  energy(sigma->0) =      -23.99049745


--------------------------------------------------------------------------------------------------------




--------------------------------------- Iteration      1(  12)  ---------------------------------------


    POTLOK:  cpu time    0.0997: real time    0.1023
    SETDIJ:  cpu time    0.0016: real time    0.0017
    EDDIAG:  cpu time    0.0315: real time    0.0324
  RMM-DIIS:  cpu time    0.1210: real time    0.1250
    ORTHCH:  cpu time    0.0014: real time    0.0014
       DOS:  cpu time    0.0002: real time    0.0002
    CHARGE:  cpu time    0.0140: real time    0.0143
    MIXING:  cpu time    0.0043: real time    0.0045
    --------------------------------------------
      LOOP:  cpu time    0.2737: real time    0.2817

 eigenvalue-minimisations  :    64
 total energy-change (2. order) :-0.1034757E-01  (-0.5356133E-03)
 number of electron       8.0000002 magnetization 
 augmentation part        0.1905943 magnetization 

 Broyden mixing:
  rms(total) = 0.13920E-01    rms(broyden)= 0.13917E-01
  rms(prec ) = 0.18083E-01
  weight for this iteration     100.00

 eigenvalues of (default mixing * dielectric matrix)
  average eigenvalue GAMMA=   2.0234
  4.8315  2.9440  2.4473  1.2811  0.9858  0.9858  0.6886

 Free energy of the ion-electron system (eV)
  ---------------------------------------------------
  alpha Z        PSCENC =         0.25451870
  Ewald energy   TEWEN  =       130.73254645
  -Hartree energ DENC   =      -285.87630178
  -exchange      EXHF   =         0.00000000
  -V(xc)+E(xc)   XCENC  =        24.93634109
  PAW double counting   =       493.61269224     -494.41145739
  entropy T*S    EENTRO =        -0.00000000
  eigenvalues    EBANDS =       -90.29093887
  atomic energy  EATOM  =       197.04175453
  Solvation  Ediel_sol  =         0.00000000
  ---------------------------------------------------
  free energy    TOTEN  =       -24.00084502 eV

  energy without entropy =      -24.00084502  energy(sigma->0) =      -24.00084502


--------------------------------------------------------------------------------------------------------




--------------------------------------- Iteration      1(  13)  ---------------------------------------


    POTLOK:  cpu time    0.0992: real time    0.1019
    SETDIJ:  cpu time    0.0016: real time    0.0016
    EDDIAG:  cpu time    0.0300: real time    0.0309
  RMM-DIIS:  cpu time    0.1214: real time    0.1251
    ORTHCH:  cpu time    0.0014: real time    0.0014
       DOS:  cpu time    0.0002: real time    0.0002
    CHARGE:  cpu time    0.0138: real time    0.0141
    MIXING:  cpu time    0.0045: real time    0.0046
    --------------------------------------------
      LOOP:  cpu time    0.2720: real time    0.2797

 eigenvalue-minimisations  :    64
 total energy-change (2. order) :-0.2324728E-03  (-0.7483372E-04)
 number of electron       8.0000002 magnetization 
 augmentation part        0.1903901 magnetization 

 Broyden mixing:
  rms(total) = 0.71969E-02    rms(broyden)= 0.71969E-02
  rms(prec ) = 0.93036E-02
  weight for this iteration     100.00

 eigenvalues of (default mixing * dielectric matrix)
  average eigenvalue GAMMA=   2.3921
  6.0237  3.9214  2.5703  2.3021  1.2264  1.2264  1.0009  0.8660

 Free energy of the ion-electron system (eV)
  ---------------------------------------------------
  alpha Z        PSCENC =         0.25451870
  Ewald energy   TEWEN  =       130.73254645
  -Hartree energ DENC   =      -286.06692972
  -exchange      EXHF   =         0.00000000
  -V(xc)+E(xc)   XCENC  =        24.94251411
  PAW double counting   =       493.47377738     -494.27490650
  entropy T*S    EENTRO =        -0.00000000
  eigenvalues    EBANDS =       -90.10435245
  atomic energy  EATOM  =       197.04175453
  Solvation  Ediel_sol  =         0.00000000
  ---------------------------------------------------
  free energy    TOTEN  =       -24.00107749 eV

  energy without entropy =      -24.00107749  energy(sigma->0) =      -24.00107749


--------------------------------------------------------------------------------------------------------




--------------------------------------- Iteration      1(  14)  ---------------------------------------


    POTLOK:  cpu time    0.0966: real time    0.1028
    SETDIJ:  cpu time    0.0016: real time    0.0016
    EDDIAG:  cpu time    0.0293: real time    0.0303
  RMM-DIIS:  cpu time    0.1220: real time    0.1257
    ORTHCH:  cpu time    0.0015: real time    0.0015
       DOS:  cpu time    0.0002: real time    0.0002
    CHARGE:  cpu time    0.0138: real time    0.0142
    MIXING:  cpu time    0.0044: real time    0.0045
    --------------------------------------------
      LOOP:  cpu time    0.2694: real time    0.2808

 eigenvalue-minimisations  :    64
 total energy-change (2. order) :-0.2800336E-02  (-0.2686618E-03)
 number of electron       8.0000002 magnetization 
 augmentation part        0.1901120 magnetization 

 Broyden mixing:
  rms(total) = 0.54632E-02    rms(broyden)= 0.54605E-02
  rms(prec ) = 0.71492E-02
  weight for this iteration     100.00

 eigenvalues of (default mixing * dielectric matrix)
  average eigenvalue GAMMA=   2.3116
  6.4754  4.1758  2.4478  2.4478  1.1915  1.1915  1.0023  0.9361  0.9361

 Free energy of the ion-electron system (eV)
  ---------------------------------------------------
  alpha Z        PSCENC =         0.25451870
  Ewald energy   TEWEN  =       130.73254645
  -Hartree energ DENC   =      -286.16338249
  -exchange      EXHF   =         0.00000000
  -V(xc)+E(xc)   XCENC  =        24.93616648
  PAW double counting   =       492.25028449     -493.05422159
  entropy T*S    EENTRO =        -0.00000000
  eigenvalues    EBANDS =       -90.00154439
  atomic energy  EATOM  =       197.04175453
  Solvation  Ediel_sol  =         0.00000000
  ---------------------------------------------------
  free energy    TOTEN  =       -24.00387783 eV

  energy without entropy =      -24.00387783  energy(sigma->0) =      -24.00387783


--------------------------------------------------------------------------------------------------------




--------------------------------------- Iteration      1(  15)  ---------------------------------------


    POTLOK:  cpu time    0.0980: real time    0.1007
    SETDIJ:  cpu time    0.0018: real time    0.0019
    EDDIAG:  cpu time    0.0299: real time    0.0307
  RMM-DIIS:  cpu time    0.1240: real time    0.1278
    ORTHCH:  cpu time    0.0014: real time    0.0015
       DOS:  cpu time    0.0002: real time    0.0002
    CHARGE:  cpu time    0.0152: real time    0.0155
    MIXING:  cpu time    0.0048: real time    0.0049
    --------------------------------------------
      LOOP:  cpu time    0.2753: real time    0.2833

 eigenvalue-minimisations  :    64
 total energy-change (2. order) :-0.1623674E-03  (-0.2589894E-04)
 number of electron       8.0000002 magnetization 
 augmentation part        0.1901533 magnetization 

 Broyden mixing:
  rms(total) = 0.16641E-02    rms(broyden)= 0.16641E-02
  rms(prec ) = 0.21139E-02
  weight for this iteration     100.00

 eigenvalues of (default mixing * dielectric matrix)
  average eigenvalue GAMMA=   2.5551
  7.4154  4.9598  3.1558  2.4966  2.0279  1.3119  1.3119  0.9924  0.9924  0.8868

 Free energy of the ion-electron system (eV)
  ---------------------------------------------------
  alpha Z        PSCENC =         0.25451870
  Ewald energy   TEWEN  =       130.73254645
  -Hartree energ DENC   =      -286.03995824
  -exchange      EXHF   =         0.00000000
  -V(xc)+E(xc)   XCENC  =        24.93052910
  PAW double counting   =       492.34230868     -493.14470384
  entropy T*S    EENTRO =        -0.00000000
  eigenvalues    EBANDS =       -90.12103557
  atomic energy  EATOM  =       197.04175453
  Solvation  Ediel_sol  =         0.00000000
  ---------------------------------------------------
  free energy    TOTEN  =       -24.00404019 eV

  energy without entropy =      -24.00404019  energy(sigma->0) =      -24.00404019


--------------------------------------------------------------------------------------------------------




--------------------------------------- Iteration      1(  16)  ---------------------------------------


    POTLOK:  cpu time    0.0996: real time    0.1018
    SETDIJ:  cpu time    0.0016: real time    0.0017
    EDDIAG:  cpu time    0.0294: real time    0.0302
  RMM-DIIS:  cpu time    0.1197: real time    0.1235
    ORTHCH:  cpu time    0.0013: real time    0.0013
       DOS:  cpu time    0.0002: real time    0.0002
    CHARGE:  cpu time    0.0142: real time    0.0146
    MIXING:  cpu time    0.0049: real time    0.0050
    --------------------------------------------
      LOOP:  cpu time    0.2709: real time    0.2783

 eigenvalue-minimisations  :    64
 total energy-change (2. order) :-0.2125950E-03  (-0.1999707E-04)
 number of electron       8.0000002 magnetization 
 augmentation part        0.1902496 magnetization 

 Broyden mixing:
  rms(total) = 0.16810E-02    rms(broyden)= 0.16802E-02
  rms(prec ) = 0.22538E-02
  weight for this iteration     100.00

 eigenvalues of (default mixing * dielectric matrix)
  average eigenvalue GAMMA=   2.5000
  7.6871  4.6928  3.6467  2.3953  2.3953  1.2434  1.2434  0.8928  0.9799  1.1616
  1.1616

 Free energy of the ion-electron system (eV)
  ---------------------------------------------------
  alpha Z        PSCENC =         0.25451870
  Ewald energy   TEWEN  =       130.73254645
  -Hartree energ DENC   =      -286.02192888
  -exchange      EXHF   =         0.00000000
  -V(xc)+E(xc)   XCENC  =        24.93099241
  PAW double counting   =       492.55724502     -493.35889004
  entropy T*S    EENTRO =        -0.00000000
  eigenvalues    EBANDS =       -90.14049098
  atomic energy  EATOM  =       197.04175453
  Solvation  Ediel_sol  =         0.00000000
  ---------------------------------------------------
  free energy    TOTEN  =       -24.00425279 eV

  energy without entropy =      -24.00425279  energy(sigma->0) =      -24.00425279


--------------------------------------------------------------------------------------------------------




--------------------------------------- Iteration      1(  17)  ---------------------------------------


    POTLOK:  cpu time    0.1007: real time    0.1030
    SETDIJ:  cpu time    0.0039: real time    0.0040
    EDDIAG:  cpu time    0.0307: real time    0.0316
  RMM-DIIS:  cpu time    0.1199: real time    0.1239
    ORTHCH:  cpu time    0.0014: real time    0.0015
       DOS:  cpu time    0.0002: real time    0.0002
    CHARGE:  cpu time    0.0138: real time    0.0141
    MIXING:  cpu time    0.0050: real time    0.0051
    --------------------------------------------
      LOOP:  cpu time    0.2756: real time    0.2834

 eigenvalue-minimisations  :    64
 total energy-change (2. order) :-0.7625348E-05  (-0.2872243E-05)
 number of electron       8.0000002 magnetization 
 augmentation part        0.1902140 magnetization 

 Broyden mixing:
  rms(total) = 0.55492E-03    rms(broyden)= 0.55491E-03
  rms(prec ) = 0.69290E-03
  weight for this iteration     100.00

 eigenvalues of (default mixing * dielectric matrix)
  average eigenvalue GAMMA=   2.5578
  8.2466  5.0047  4.0409  2.6454  2.4621  1.8158  1.3413  1.3413  1.0053  0.9645
  0.9645  0.8611

 Free energy of the ion-electron system (eV)
  ---------------------------------------------------
  alpha Z        PSCENC =         0.25451870
  Ewald energy   TEWEN  =       130.73254645
  -Hartree energ DENC   =      -286.06649938
  -exchange      EXHF   =         0.00000000
  -V(xc)+E(xc)   XCENC  =        24.93315188
  PAW double counting   =       492.57731082     -493.37938590
  entropy T*S    EENTRO =        -0.00000000
  eigenvalues    EBANDS =       -90.09765752
  atomic energy  EATOM  =       197.04175453
  Solvation  Ediel_sol  =         0.00000000
  ---------------------------------------------------
  free energy    TOTEN  =       -24.00426041 eV

  energy without entropy =      -24.00426041  energy(sigma->0) =      -24.00426041


--------------------------------------------------------------------------------------------------------




--------------------------------------- Iteration      1(  18)  ---------------------------------------


    POTLOK:  cpu time    0.1018: real time    0.1052
    SETDIJ:  cpu time    0.0016: real time    0.0016
    EDDIAG:  cpu time    0.0296: real time    0.0304
  RMM-DIIS:  cpu time    0.1209: real time    0.1248
    ORTHCH:  cpu time    0.0014: real time    0.0014
       DOS:  cpu time    0.0002: real time    0.0002
    CHARGE:  cpu time    0.0140: real time    0.0143
    MIXING:  cpu time    0.0052: real time    0.0053
    --------------------------------------------
      LOOP:  cpu time    0.2748: real time    0.2832

 eigenvalue-minimisations  :    64
 total energy-change (2. order) :-0.1867346E-04  (-0.1153806E-05)
 number of electron       8.0000002 magnetization 
 augmentation part        0.1901881 magnetization 

 Broyden mixing:
  rms(total) = 0.17272E-03    rms(broyden)= 0.17221E-03
  rms(prec ) = 0.24120E-03
  weight for this iteration     100.00

 eigenvalues of (default mixing * dielectric matrix)
  average eigenvalue GAMMA=   2.4587
  8.2379  5.1894  3.8499  2.6645  2.4919  1.9261  1.3183  1.3183  0.8822  0.9894
  0.9894  1.0529  1.0529

 Free energy of the ion-electron system (eV)
  ---------------------------------------------------
  alpha Z        PSCENC =         0.25451870
  Ewald energy   TEWEN  =       130.73254645
  -Hartree energ DENC   =      -286.07381548
  -exchange      EXHF   =         0.00000000
  -V(xc)+E(xc)   XCENC  =        24.93321181
  PAW double counting   =       492.43299401     -493.23523957
  entropy T*S    EENTRO =        -0.00000000
  eigenvalues    EBANDS =       -90.09024955
  atomic energy  EATOM  =       197.04175453
  Solvation  Ediel_sol  =         0.00000000
  ---------------------------------------------------
  free energy    TOTEN  =       -24.00427909 eV

  energy without entropy =      -24.00427909  energy(sigma->0) =      -24.00427909


--------------------------------------------------------------------------------------------------------




--------------------------------------- Iteration      1(  19)  ---------------------------------------


    POTLOK:  cpu time    0.1029: real time    0.1061
    SETDIJ:  cpu time    0.0016: real time    0.0017
    EDDIAG:  cpu time    0.0303: real time    0.0314
  RMM-DIIS:  cpu time    0.0954: real time    0.0991
    ORTHCH:  cpu time    0.0013: real time    0.0020
       DOS:  cpu time    0.0002: real time    0.0003
    CHARGE:  cpu time    0.0137: real time    0.0141
    MIXING:  cpu time    0.0053: real time    0.0054
    --------------------------------------------
      LOOP:  cpu time    0.2508: real time    0.2599

 eigenvalue-minimisations  :    48
 total energy-change (2. order) :-0.1657165E-05  (-0.2781119E-07)
 number of electron       8.0000002 magnetization 
 augmentation part        0.1901879 magnetization 

 Broyden mixing:
  rms(total) = 0.13243E-03    rms(broyden)= 0.13239E-03
  rms(prec ) = 0.18204E-03
  weight for this iteration     100.00

 eigenvalues of (default mixing * dielectric matrix)
  average eigenvalue GAMMA=   2.5280
  8.3019  5.4171  3.9702  3.5032  2.5380  2.3284  1.7948  1.3545  1.3545  1.0270
  1.0270  0.8761  0.9494  0.9494

 Free energy of the ion-electron system (eV)
  ---------------------------------------------------
  alpha Z        PSCENC =         0.25451870
  Ewald energy   TEWEN  =       130.73254645
  -Hartree energ DENC   =      -286.06975495
  -exchange      EXHF   =         0.00000000
  -V(xc)+E(xc)   XCENC  =        24.93297696
  PAW double counting   =       492.43490557     -493.23712054
  entropy T*S    EENTRO =        -0.00000000
  eigenvalues    EBANDS =       -90.09410746
  atomic energy  EATOM  =       197.04175453
  Solvation  Ediel_sol  =         0.00000000
  ---------------------------------------------------
  free energy    TOTEN  =       -24.00428074 eV

  energy without entropy =      -24.00428074  energy(sigma->0) =      -24.00428074


--------------------------------------------------------------------------------------------------------




--------------------------------------- Iteration      1(  20)  ---------------------------------------


    POTLOK:  cpu time    0.1057: real time    0.1101
    SETDIJ:  cpu time    0.0016: real time    0.0017
    EDDIAG:  cpu time    0.0294: real time    0.0304
  RMM-DIIS:  cpu time    0.0980: real time    0.1021
    ORTHCH:  cpu time    0.0014: real time    0.0014
       DOS:  cpu time    0.0002: real time    0.0002
    CHARGE:  cpu time    0.0138: real time    0.0142
    MIXING:  cpu time    0.0055: real time    0.0056
    --------------------------------------------
      LOOP:  cpu time    0.2555: real time    0.2657

 eigenvalue-minimisations  :    48
 total energy-change (2. order) :-0.1898924E-05  (-0.3823548E-07)
 number of electron       8.0000002 magnetization 
 augmentation part        0.1901920 magnetization 

 Broyden mixing:
  rms(total) = 0.19619E-04    rms(broyden)= 0.19605E-04
  rms(prec ) = 0.24902E-04
  weight for this iteration     100.00

 eigenvalues of (default mixing * dielectric matrix)
  average eigenvalue GAMMA=   2.4532
  8.2862  5.5425  3.8144  3.8144  2.4636  2.4636  1.8054  1.3531  1.3531  1.0579
  1.0579  1.0344  0.9470  0.9470  0.8572

 Free energy of the ion-electron system (eV)
  ---------------------------------------------------
  alpha Z        PSCENC =         0.25451870
  Ewald energy   TEWEN  =       130.73254645
  -Hartree energ DENC   =      -286.06525060
  -exchange      EXHF   =         0.00000000
  -V(xc)+E(xc)   XCENC  =        24.93273514
  PAW double counting   =       492.44481860     -493.24697734
  entropy T*S    EENTRO =        -0.00000000
  eigenvalues    EBANDS =       -90.09842813
  atomic energy  EATOM  =       197.04175453
  Solvation  Ediel_sol  =         0.00000000
  ---------------------------------------------------
  free energy    TOTEN  =       -24.00428264 eV

  energy without entropy =      -24.00428264  energy(sigma->0) =      -24.00428264


--------------------------------------------------------------------------------------------------------




--------------------------------------- Iteration      1(  21)  ---------------------------------------


    POTLOK:  cpu time    0.1060: real time    0.1112
    SETDIJ:  cpu time    0.0016: real time    0.0016
    EDDIAG:  cpu time    0.0294: real time    0.0304
  RMM-DIIS:  cpu time    0.0946: real time    0.0977
    ORTHCH:  cpu time    0.0014: real time    0.0014
       DOS:  cpu time    0.0002: real time    0.0002
    --------------------------------------------
      LOOP:  cpu time    0.2331: real time    0.2424

 eigenvalue-minimisations  :    44
 total energy-change (2. order) :-0.1707247E-06  (-0.3857036E-08)
 number of electron       8.0000002 magnetization 
 augmentation part        0.1901920 magnetization 

 Free energy of the ion-electron system (eV)
  ---------------------------------------------------
  alpha Z        PSCENC =         0.25451870
  Ewald energy   TEWEN  =       130.73254645
  -Hartree energ DENC   =      -286.06540353
  -exchange      EXHF   =         0.00000000
  -V(xc)+E(xc)   XCENC  =        24.93274423
  PAW double counting   =       492.44557313     -493.24773510
  entropy T*S    EENTRO =        -0.00000000
  eigenvalues    EBANDS =       -90.09828123
  atomic energy  EATOM  =       197.04175453
  Solvation  Ediel_sol  =         0.00000000
  ---------------------------------------------------
  free energy    TOTEN  =       -24.00428281 eV

  energy without entropy =      -24.00428281  energy(sigma->0) =      -24.00428281


--------------------------------------------------------------------------------------------------------




 average (electrostatic) potential at core
  the test charge radii are     0.5201  0.6991
  (the norm of the test charge is              1.0000)
       1 -41.6104       2 -41.6839       3 -41.5311       4 -41.5759       5 -57.8500
 
 
 
 E-fermi :  -8.3585     XC(G=0):  -0.7247     alpha+bet : -0.2213


 k-point     1 :       0.2500    0.2500    0.2500
  band No.  band energies     occupation 
      1     -17.0089      2.00000
      2      -9.4015      2.00000
      3      -9.3446      2.00000
      4      -9.2940      2.00000
      5      -0.2868      0.00000
      6       0.6014      0.00000
      7       0.6982      0.00000
      8       0.7197      0.00000

 k-point     2 :      -0.2500    0.2500    0.2500
  band No.  band energies     occupation 
      1     -17.0089      2.00000
      2      -9.4015      2.00000
      3      -9.3447      2.00000
      4      -9.2942      2.00000
      5      -0.2884      0.00000
      6       0.5984      0.00000
      7       0.7005      0.00000
      8       0.7264      0.00000

 k-point     3 :       0.2500   -0.2500    0.2500
  band No.  band energies     occupation 
      1     -17.0089      2.00000
      2      -9.4015      2.00000
      3      -9.3447      2.00000
      4      -9.2941      2.00000
      5      -0.2876      0.00000
      6       0.5974      0.00000
      7       0.7010      0.00000
      8       0.7232      0.00000

 k-point     4 :      -0.2500   -0.2500    0.2500
  band No.  band energies     occupation 
      1     -17.0090      2.00000
      2      -9.4015      2.00000
      3      -9.3446      2.00000
      4      -9.2942      2.00000
      5      -0.2881      0.00000
      6       0.6011      0.00000
      7       0.7026      0.00000
      8       0.7239      0.00000


--------------------------------------------------------------------------------------------------------


 soft charge-density along one line, spin component           1
         0         1         2         3         4         5         6         7         8         9
 total charge-density along one line
 
 pseudopotential strength for first ion, spin component:           1
 -2.342  -4.035  -0.001  -0.001   0.001
 -4.035  -6.868  -0.003  -0.004   0.002
 -0.001  -0.003  -0.336   0.002  -0.001
 -0.001  -0.004   0.002  -0.335  -0.001
  0.001   0.002  -0.001  -0.001  -0.337
 total augmentation occupancy for first ion, spin component:           1
  3.609  -0.646   0.250   0.347  -0.143
 -0.646   0.130  -0.046  -0.064   0.026
  0.250  -0.046   0.024   0.020  -0.008
  0.347  -0.064   0.020   0.038  -0.011
 -0.143   0.026  -0.008  -0.011   0.015


------------------------ aborting loop because EDIFF is reached ----------------------------------------


    CHARGE:  cpu time    0.0138: real time    0.0139
    FORLOC:  cpu time    0.0093: real time    0.0094
    FORNL :  cpu time    0.0164: real time    0.0165
    STRESS:  cpu time    0.1310: real time    0.1355
    FORCOR:  cpu time    0.1113: real time    0.1132
    FORHAR:  cpu time    0.0324: real time    0.0366
    MIXING:  cpu time    0.0056: real time    0.0056
    OFIELD:  cpu time    0.0001: real time    0.0000

  FORCE on cell =-STRESS in cart. coord.  units (eV):
  Direction    XX          YY          ZZ          XY          YZ          ZX
  --------------------------------------------------------------------------------------
  Alpha Z     0.25452     0.25452     0.25452
  Ewald      44.18998    42.91074    43.63178    -0.70185    -0.08209    -0.83849
  Hartree    95.92469    94.37822    95.76336    -0.09747    -0.08275    -0.27173
  E(xc)     -27.42286   -27.40985   -27.41898    -0.00132    -0.00119    -0.00401
  Local    -198.52752  -195.83535  -198.04287     0.58723     0.18664     0.96629
  n-local   -16.37308   -16.29628   -16.32442     0.01921    -0.00258    -0.00379
  augment     0.10503     0.10803     0.10778     0.00208    -0.00034     0.00104
  Kinetic   102.69448   101.99946   102.46557     0.05189     0.04661     0.20642
  Fock        0.00000     0.00000     0.00000     0.00000     0.00000     0.00000
  -------------------------------------------------------------------------------------
  Total       0.84523     0.10948     0.43675    -0.14023     0.06431     0.05572
  in kB       1.42279     0.18430     0.73518    -0.23605     0.10825     0.09379
  external pressure =        0.78 kB  Pullay stress =        0.00 kB

  kinetic pressure (ideal gas correction) =      0.00 kB
  total pressure  =      0.78 kB
  Total+kin.     1.423       0.184       0.735      -0.236       0.108       0.094

 VOLUME and BASIS-vectors are now :
 -----------------------------------------------------------------------------
  energy-cutoff  :      400.00
  volume of cell :      951.80
      direct lattice vectors                 reciprocal lattice vectors
     9.768621201  0.000000000  0.000000000     0.102368592  0.000177956  0.000482648
    -0.017286712  9.944139539  0.000000000     0.000000000  0.100561743  0.000139727
    -0.046172803 -0.013614227  9.798171212     0.000000000  0.000000000  0.102059862

  length of vectors
     9.768621201  9.944154565  9.798289462     0.102369885  0.100561840  0.102059862


 FORCES acting on ions
    electron-ion (+dipol)            ewald-force                    non-local-force                 convergence-correction
 -----------------------------------------------------------------------------------------------
   -.171E+02 0.299E+02 0.415E+02   0.191E+02 -.334E+02 -.464E+02   -.183E+01 0.320E+01 0.442E+01   0.840E-05 -.244E-04 -.243E-04
   0.539E+02 -.664E+01 0.291E+01   -.607E+02 0.746E+01 -.331E+01   0.586E+01 -.727E+00 0.299E+00   -.338E-04 0.500E-05 -.554E-06
   -.234E+02 -.481E+02 0.127E+01   0.260E+02 0.534E+02 -.139E+01   -.243E+01 -.505E+01 0.134E+00   0.118E-04 0.368E-04 0.129E-05
   -.119E+02 0.252E+02 -.460E+02   0.134E+02 -.281E+02 0.513E+02   -.125E+01 0.268E+01 -.488E+01   0.532E-05 -.188E-04 0.277E-04
   -.186E+01 -.522E+00 0.224E+00   0.220E+01 0.633E+00 -.200E+00   0.852E-01 0.648E-01 0.115E+00   -.807E-05 0.119E-05 0.152E-04
 -----------------------------------------------------------------------------------------------
   -.438E+00 -.169E+00 -.963E-01   -.355E-14 0.355E-14 0.711E-14   0.438E+00 0.168E+00 0.966E-01   -.163E-04 -.191E-06 0.193E-04
 
 
 POSITION                                       TOTAL-FORCE (eV/Angst)
 -----------------------------------------------------------------------------------
      5.22984      4.04392      3.52798         0.191597     -0.301679     -0.495572
      3.82848      4.77223      4.30177        -0.989926      0.092844     -0.106229
      5.36262      5.62112      4.33279         0.196266      0.221508      0.011380
      5.12668      4.13487      5.28359         0.178223     -0.188972      0.451505
      4.88795      4.64210      4.35811         0.423149      0.175932      0.139207
 -----------------------------------------------------------------------------------
    total drift:                               -0.000691     -0.000366      0.000290


--------------------------------------------------------------------------------------------------------



  FREE ENERGIE OF THE ION-ELECTRON SYSTEM (eV)
  ---------------------------------------------------
  free  energy   TOTEN  =       -24.00428281 eV

  energy  without entropy=      -24.00428281  energy(sigma->0) =      -24.00428281
 


--------------------------------------------------------------------------------------------------------


    POTLOK:  cpu time    0.1099: real time    0.1111


--------------------------------------------------------------------------------------------------------


 stress matrix after NEB project (eV)
      0.84523     -0.14023      0.05572
     -0.14023      0.10948      0.06431
      0.05572      0.06431      0.43675
  FORCES: max atom, RMS     0.999929    0.626355
  FORCE total and by dimension    1.400572    0.989926
  Stress total and by dimension    0.985371    0.845230
           RANDOM_SEED =         581349558                0                0
           RANDOM_SEED =         581349558               30                0
   IONSTEP:  cpu time    0.0027: real time    0.0056

  ENERGY OF THE ELECTRON-ION-THERMOSTAT SYSTEM (eV)
  ---------------------------------------------------
% ion-electron   TOTEN  =       -24.004283  see above
  kinetic energy EKIN   =         0.000532
  kin. lattice  EKIN_LAT=         0.000000  (temperature    1.03 K)
  nose potential ES     =         0.000000
  nose kinetic   EPS    =         0.000000
  ---------------------------------------------------
  total energy   ETOTAL =       -24.003751 eV

  maximum distance moved by ions :      0.25E-03

    WAVPRE:  cpu time    0.0323: real time    0.0327
    FEWALD:  cpu time    0.0004: real time    0.0004
    ORTHCH:  cpu time    0.0075: real time    0.0075
     LOOP+:  cpu time    5.7544: real time    5.9694


--------------------------------------- Iteration      2(   1)  ---------------------------------------


    POTLOK:  cpu time    0.1085: real time    0.1143
    SETDIJ:  cpu time    0.0016: real time    0.0016
     EDDAV:  cpu time    0.1588: real time    0.1609
       DOS:  cpu time    0.0002: real time    0.0002
    CHARGE:  cpu time    0.0140: real time    0.0141
    MIXING:  cpu time    0.0044: real time    0.0048
    --------------------------------------------
      LOOP:  cpu time    0.2877: real time    0.2960

 eigenvalue-minimisations  :    96
 total energy-change (2. order) :-0.4097404E-02  (-0.5164566E-03)
 number of electron       8.0000002 magnetization 
 augmentation part        0.1896085 magnetization 

 Broyden mixing:
  rms(total) = 0.43006E-02    rms(broyden)= 0.42976E-02
  rms(prec ) = 0.57471E-02
  weight for this iteration     100.00

 Free energy of the ion-electron system (eV)
  ---------------------------------------------------
  alpha Z        PSCENC =         0.25451870
  Ewald energy   TEWEN  =       130.38098932
  -Hartree energ DENC   =      -285.86784365
  -exchange      EXHF   =         0.00000000
  -V(xc)+E(xc)   XCENC  =        24.92275164
  PAW double counting   =       492.45590503     -493.25806837
  entropy T*S    EENTRO =        -0.00000000
  eigenvalues    EBANDS =       -89.93838725
  atomic energy  EATOM  =       197.04175453
  Solvation  Ediel_sol  =         0.00000000
  ---------------------------------------------------
  free energy    TOTEN  =       -24.00838005 eV

  energy without entropy =      -24.00838005  energy(sigma->0) =      -24.00838005


--------------------------------------------------------------------------------------------------------




--------------------------------------- Iteration      2(   2)  ---------------------------------------


    POTLOK:  cpu time    0.1094: real time    0.1141
    SETDIJ:  cpu time    0.0018: real time    0.0018
    EDDIAG:  cpu time    0.0301: real time    0.0304
  RMM-DIIS:  cpu time    0.1223: real time    0.1252
    ORTHCH:  cpu time    0.0014: real time    0.0014
       DOS:  cpu time    0.0002: real time    0.0002
    CHARGE:  cpu time    0.0140: real time    0.0141
    MIXING:  cpu time    0.0037: real time    0.0037
    --------------------------------------------
      LOOP:  cpu time    0.2828: real time    0.2909

 eigenvalue-minimisations  :    64
 total energy-change (2. order) : 0.5707404E-04  (-0.1727360E-04)
 number of electron       8.0000002 magnetization 
 augmentation part        0.1897092 magnetization 

 Broyden mixing:
  rms(total) = 0.17351E-02    rms(broyden)= 0.17347E-02
  rms(prec ) = 0.21221E-02
  weight for this iteration     100.00

 eigenvalues of (default mixing * dielectric matrix)
  average eigenvalue GAMMA=   1.4959
  1.4959

 Free energy of the ion-electron system (eV)
  ---------------------------------------------------
  alpha Z        PSCENC =         0.25451870
  Ewald energy   TEWEN  =       130.38098932
  -Hartree energ DENC   =      -285.79073845
  -exchange      EXHF   =         0.00000000
  -V(xc)+E(xc)   XCENC  =        24.91863823
  PAW double counting   =       491.48179827     -492.28302292
  entropy T*S    EENTRO =        -0.00000000
  eigenvalues    EBANDS =       -90.01226066
  atomic energy  EATOM  =       197.04175453
  Solvation  Ediel_sol  =         0.00000000
  ---------------------------------------------------
  free energy    TOTEN  =       -24.00832297 eV

  energy without entropy =      -24.00832297  energy(sigma->0) =      -24.00832297


--------------------------------------------------------------------------------------------------------




--------------------------------------- Iteration      2(   3)  ---------------------------------------


    POTLOK:  cpu time    0.0998: real time    0.1017
    SETDIJ:  cpu time    0.0017: real time    0.0017
    EDDIAG:  cpu time    0.0304: real time    0.0310
  RMM-DIIS:  cpu time    0.1236: real time    0.1263
    ORTHCH:  cpu time    0.0014: real time    0.0014
       DOS:  cpu time    0.0002: real time    0.0002
    CHARGE:  cpu time    0.0138: real time    0.0141
    MIXING:  cpu time    0.0039: real time    0.0039
    --------------------------------------------
      LOOP:  cpu time    0.2748: real time    0.2803

 eigenvalue-minimisations  :    64
 total energy-change (2. order) : 0.1243075E-05  (-0.6233123E-05)
 number of electron       8.0000002 magnetization 
 augmentation part        0.1897685 magnetization 

 Broyden mixing:
  rms(total) = 0.80809E-03    rms(broyden)= 0.80756E-03
  rms(prec ) = 0.89334E-03
  weight for this iteration     100.00

 eigenvalues of (default mixing * dielectric matrix)
  average eigenvalue GAMMA=   2.0005
  1.7587  2.2422

 Free energy of the ion-electron system (eV)
  ---------------------------------------------------
  alpha Z        PSCENC =         0.25451870
  Ewald energy   TEWEN  =       130.38098932
  -Hartree energ DENC   =      -285.75578925
  -exchange      EXHF   =         0.00000000
  -V(xc)+E(xc)   XCENC  =        24.91662678
  PAW double counting   =       490.74249658     -491.54328080
  entropy T*S    EENTRO =        -0.00000000
  eigenvalues    EBANDS =       -90.04563759
  atomic energy  EATOM  =       197.04175453
  Solvation  Ediel_sol  =         0.00000000
  ---------------------------------------------------
  free energy    TOTEN  =       -24.00832173 eV

  energy without entropy =      -24.00832173  energy(sigma->0) =      -24.00832173


--------------------------------------------------------------------------------------------------------




--------------------------------------- Iteration      2(   4)  ---------------------------------------


    POTLOK:  cpu time    0.1017: real time    0.1053
    SETDIJ:  cpu time    0.0018: real time    0.0019
    EDDIAG:  cpu time    0.0302: real time    0.0305
  RMM-DIIS:  cpu time    0.1221: real time    0.1238
    ORTHCH:  cpu time    0.0014: real time    0.0014
       DOS:  cpu time    0.0002: real time    0.0002
    CHARGE:  cpu time    0.0141: real time    0.0143
    MIXING:  cpu time    0.0038: real time    0.0038
    --------------------------------------------
      LOOP:  cpu time    0.2753: real time    0.2811

 eigenvalue-minimisations  :    64
 total energy-change (2. order) :-0.1459494E-05  (-0.4342492E-06)
 number of electron       8.0000002 magnetization 
 augmentation part        0.1897639 magnetization 

 Broyden mixing:
  rms(total) = 0.23911E-03    rms(broyden)= 0.23909E-03
  rms(prec ) = 0.32398E-03
  weight for this iteration     100.00

 eigenvalues of (default mixing * dielectric matrix)
  average eigenvalue GAMMA=   1.6295
  2.4654  1.0614  1.3616

 Free energy of the ion-electron system (eV)
  ---------------------------------------------------
  alpha Z        PSCENC =         0.25451870
  Ewald energy   TEWEN  =       130.38098932
  -Hartree energ DENC   =      -285.76865954
  -exchange      EXHF   =         0.00000000
  -V(xc)+E(xc)   XCENC  =        24.91698397
  PAW double counting   =       490.26865189     -491.06961058
  entropy T*S    EENTRO =        -0.00000000
  eigenvalues    EBANDS =       -90.03295148
  atomic energy  EATOM  =       197.04175453
  Solvation  Ediel_sol  =         0.00000000
  ---------------------------------------------------
  free energy    TOTEN  =       -24.00832319 eV

  energy without entropy =      -24.00832319  energy(sigma->0) =      -24.00832319


--------------------------------------------------------------------------------------------------------




--------------------------------------- Iteration      2(   5)  ---------------------------------------


    POTLOK:  cpu time    0.1024: real time    0.1034
    SETDIJ:  cpu time    0.0016: real time    0.0017
    EDDIAG:  cpu time    0.0302: real time    0.0307
  RMM-DIIS:  cpu time    0.0989: real time    0.1001
    ORTHCH:  cpu time    0.0014: real time    0.0014
       DOS:  cpu time    0.0002: real time    0.0002
    --------------------------------------------
      LOOP:  cpu time    0.2347: real time    0.2374

 eigenvalue-minimisations  :    48
 total energy-change (2. order) : 0.1313854E-06  (-0.3390389E-07)
 number of electron       8.0000002 magnetization 
 augmentation part        0.1897639 magnetization 

 Free energy of the ion-electron system (eV)
  ---------------------------------------------------
  alpha Z        PSCENC =         0.25451870
  Ewald energy   TEWEN  =       130.38098932
  -Hartree energ DENC   =      -285.76264266
  -exchange      EXHF   =         0.00000000
  -V(xc)+E(xc)   XCENC  =        24.91667900
  PAW double counting   =       490.21749060     -491.01837679
  entropy T*S    EENTRO =        -0.00000000
  eigenvalues    EBANDS =       -90.03873575
  atomic energy  EATOM  =       197.04175453
  Solvation  Ediel_sol  =         0.00000000
  ---------------------------------------------------
  free energy    TOTEN  =       -24.00832306 eV

  energy without entropy =      -24.00832306  energy(sigma->0) =      -24.00832306


--------------------------------------------------------------------------------------------------------




 average (electrostatic) potential at core
  the test charge radii are     0.5201  0.6991
  (the norm of the test charge is              1.0000)
       1 -41.5997       2 -41.6640       3 -41.5279       4 -41.5678       5 -57.8580
 
 
 
 E-fermi :  -8.3420     XC(G=0):  -0.6960     alpha+bet : -0.2213


 k-point     1 :       0.2500    0.2500    0.2500
  band No.  band energies     occupation 
      1     -16.9972      2.00000
      2      -9.3929      2.00000
      3      -9.3403      2.00000
      4      -9.2889      2.00000
      5      -0.2783      0.00000
      6       0.6267      0.00000
      7       0.7148      0.00000
      8       0.7403      0.00000

 k-point     2 :      -0.2500    0.2500    0.2500
  band No.  band energies     occupation 
      1     -16.9972      2.00000
      2      -9.3929      2.00000
      3      -9.3404      2.00000
      4      -9.2890      2.00000
      5      -0.2798      0.00000
      6       0.6232      0.00000
      7       0.7165      0.00000
      8       0.7478      0.00000

 k-point     3 :       0.2500   -0.2500    0.2500
  band No.  band energies     occupation 
      1     -16.9972      2.00000
      2      -9.3929      2.00000
      3      -9.3404      2.00000
      4      -9.2889      2.00000
      5      -0.2790      0.00000
      6       0.6215      0.00000
      7       0.7172      0.00000
      8       0.7452      0.00000

 k-point     4 :      -0.2500   -0.2500    0.2500
  band No.  band energies     occupation 
      1     -16.9972      2.00000
      2      -9.3929      2.00000
      3      -9.3403      2.00000
      4      -9.2891      2.00000
      5      -0.2795      0.00000
      6       0.6267      0.00000
      7       0.7189      0.00000
      8       0.7442      0.00000


--------------------------------------------------------------------------------------------------------


 soft charge-density along one line, spin component           1
         0         1         2         3         4         5         6         7         8         9
 total charge-density along one line
 
 pseudopotential strength for first ion, spin component:           1
 -2.342  -4.035  -0.001  -0.001   0.001
[...]
      5.37486      5.63251      4.33368        -0.063906     -0.185231      0.005215
      5.13745      4.12608      5.30757        -0.063350      0.181696     -0.308336
      4.88937      4.64280      4.35880        -0.425314     -0.154118     -0.042966
 -----------------------------------------------------------------------------------
    total drift:                               -0.000554     -0.000207      0.000014


--------------------------------------------------------------------------------------------------------



  FREE ENERGIE OF THE ION-ELECTRON SYSTEM (eV)
  ---------------------------------------------------
  free  energy   TOTEN  =       -24.01518936 eV

  energy  without entropy=      -24.01518936  energy(sigma->0) =      -24.01518936
 
 d Force =-0.6486171E-02[-0.751E-02,-0.546E-02]  d Energy =-0.6493256E-02 0.708E-05
 d Force = 0.8707515E+00[ 0.867E+00, 0.874E+00]  d Ewald  = 0.8707447E+00 0.680E-05


--------------------------------------------------------------------------------------------------------


    POTLOK:  cpu time    0.1111: real time    0.1140


--------------------------------------------------------------------------------------------------------


 stress matrix after NEB project (eV)
     -1.24003      0.14936      0.02070
      0.14936     -0.81881     -0.03379
      0.02070     -0.03379     -0.94547
  FORCES: max atom, RMS     0.703789    0.461628
  FORCE total and by dimension    1.032232    0.696877
  Stress total and by dimension    1.774765    1.240033
           RANDOM_SEED =         581349558               30                0
   IONSTEP:  cpu time    0.0002: real time    0.0002

  ENERGY OF THE ELECTRON-ION-THERMOSTAT SYSTEM (eV)
  ---------------------------------------------------
% ion-electron   TOTEN  =       -24.015189  see above
  kinetic energy EKIN   =         0.011247
  kin. lattice  EKIN_LAT=         0.000000  (temperature   21.75 K)
  nose potential ES     =         0.000000
  nose kinetic   EPS    =         0.000000
  ---------------------------------------------------
  total energy   ETOTAL =       -24.003943 eV

  maximum distance moved by ions :      0.45E-03

    WAVPRE:  cpu time    0.0377: real time    0.0385
    FEWALD:  cpu time    0.0003: real time    0.0003
    ORTHCH:  cpu time    0.0074: real time    0.0075
 Prediction of Wavefunctions ALPHA= 2.141 BETA=-1.177
     LOOP+:  cpu time    1.7590: real time    1.8070


--------------------------------------- Iteration     10(   1)  ---------------------------------------


    POTLOK:  cpu time    0.1039: real time    0.1064
    SETDIJ:  cpu time    0.0016: real time    0.0016
     EDDAV:  cpu time    0.1232: real time    0.1266
       DOS:  cpu time    0.0002: real time    0.0002
    CHARGE:  cpu time    0.0134: real time    0.0137
    MIXING:  cpu time    0.0038: real time    0.0039
    --------------------------------------------
      LOOP:  cpu time    0.2461: real time    0.2524

 eigenvalue-minimisations  :    64
 total energy-change (2. order) : 0.5936202E-02  (-0.3963468E-04)
 number of electron       7.9999999 magnetization 
 augmentation part        0.1807662 magnetization 

 Broyden mixing:
  rms(total) = 0.14541E-03    rms(broyden)= 0.14492E-03
  rms(prec ) = 0.16165E-03
  weight for this iteration     100.00

 Free energy of the ion-electron system (eV)
  ---------------------------------------------------
  alpha Z        PSCENC =         0.25451870
  Ewald energy   TEWEN  =       122.81871916
  -Hartree energ DENC   =      -279.12002820
  -exchange      EXHF   =         0.00000000
  -V(xc)+E(xc)   XCENC  =        24.56528329
  PAW double counting   =       444.74087540     -445.51522931
  entropy T*S    EENTRO =        -0.00000000
  eigenvalues    EBANDS =       -88.79514576
  atomic energy  EATOM  =       197.04175453
  Solvation  Ediel_sol  =         0.00000000
  ---------------------------------------------------
  free energy    TOTEN  =       -24.00925217 eV

  energy without entropy =      -24.00925217  energy(sigma->0) =      -24.00925217


--------------------------------------------------------------------------------------------------------




--------------------------------------- Iteration     10(   2)  ---------------------------------------


    POTLOK:  cpu time    0.1044: real time    0.1078
    SETDIJ:  cpu time    0.0018: real time    0.0018
    EDDIAG:  cpu time    0.0292: real time    0.0304
  RMM-DIIS:  cpu time    0.1156: real time    0.1197
    ORTHCH:  cpu time    0.0016: real time    0.0017
       DOS:  cpu time    0.0002: real time    0.0002
    CHARGE:  cpu time    0.0142: real time    0.0145
    MIXING:  cpu time    0.0036: real time    0.0036
    --------------------------------------------
      LOOP:  cpu time    0.2706: real time    0.2797

 eigenvalue-minimisations  :    58
 total energy-change (2. order) :-0.6898456E-06  (-0.6751807E-06)
 number of electron       7.9999999 magnetization 
 augmentation part        0.1807745 magnetization 

 Broyden mixing:
  rms(total) = 0.12918E-03    rms(broyden)= 0.12888E-03
  rms(prec ) = 0.15660E-03
  weight for this iteration     100.00

 eigenvalues of (default mixing * dielectric matrix)
  average eigenvalue GAMMA=   0.5630
  0.5630

 Free energy of the ion-electron system (eV)
  ---------------------------------------------------
  alpha Z        PSCENC =         0.25451870
  Ewald energy   TEWEN  =       122.81871916
  -Hartree energ DENC   =      -279.11881964
  -exchange      EXHF   =         0.00000000
  -V(xc)+E(xc)   XCENC  =        24.56522447
  PAW double counting   =       444.70807633     -445.48240623
  entropy T*S    EENTRO =        -0.00000000
  eigenvalues    EBANDS =       -88.79632019
  atomic energy  EATOM  =       197.04175453
  Solvation  Ediel_sol  =         0.00000000
  ---------------------------------------------------
  free energy    TOTEN  =       -24.00925286 eV

  energy without entropy =      -24.00925286  energy(sigma->0) =      -24.00925286


--------------------------------------------------------------------------------------------------------




--------------------------------------- Iteration     10(   3)  ---------------------------------------


    POTLOK:  cpu time    0.1033: real time    0.1062
    SETDIJ:  cpu time    0.0017: real time    0.0017
    EDDIAG:  cpu time    0.0294: real time    0.0303
  RMM-DIIS:  cpu time    0.0973: real time    0.1009
    ORTHCH:  cpu time    0.0014: real time    0.0015
       DOS:  cpu time    0.0002: real time    0.0002
    CHARGE:  cpu time    0.0138: real time    0.0142
    MIXING:  cpu time    0.0038: real time    0.0039
    --------------------------------------------
      LOOP:  cpu time    0.2509: real time    0.2588

 eigenvalue-minimisations  :    48
 total energy-change (2. order) :-0.2874941E-08  (-0.1813858E-07)
 number of electron       7.9999999 magnetization 
 augmentation part        0.1807755 magnetization 

 Broyden mixing:
  rms(total) = 0.10821E-03    rms(broyden)= 0.10818E-03
  rms(prec ) = 0.12974E-03
  weight for this iteration     100.00

 eigenvalues of (default mixing * dielectric matrix)
  average eigenvalue GAMMA=   1.4511
  1.4511  1.4511

 Free energy of the ion-electron system (eV)
  ---------------------------------------------------
  alpha Z        PSCENC =         0.25451870
  Ewald energy   TEWEN  =       122.81871916
  -Hartree energ DENC   =      -279.11828053
  -exchange      EXHF   =         0.00000000
  -V(xc)+E(xc)   XCENC  =        24.56521010
  PAW double counting   =       444.70430242     -445.47862339
  entropy T*S    EENTRO =        -0.00000000
  eigenvalues    EBANDS =       -88.79685387
  atomic energy  EATOM  =       197.04175453
  Solvation  Ediel_sol  =         0.00000000
  ---------------------------------------------------
  free energy    TOTEN  =       -24.00925286 eV

  energy without entropy =      -24.00925286  energy(sigma->0) =      -24.00925286


--------------------------------------------------------------------------------------------------------




--------------------------------------- Iteration     10(   4)  ---------------------------------------


    POTLOK:  cpu time    0.1045: real time    0.1083
    SETDIJ:  cpu time    0.0016: real time    0.0016
    EDDIAG:  cpu time    0.0297: real time    0.0306
  RMM-DIIS:  cpu time    0.0969: real time    0.0996
    ORTHCH:  cpu time    0.0018: real time    0.0018
       DOS:  cpu time    0.0002: real time    0.0002
    --------------------------------------------
      LOOP:  cpu time    0.2346: real time    0.2421

 eigenvalue-minimisations  :    48
 total energy-change (2. order) :-0.5742808E-07  (-0.1835084E-07)
 number of electron       7.9999999 magnetization 
 augmentation part        0.1807755 magnetization 

 Free energy of the ion-electron system (eV)
  ---------------------------------------------------
  alpha Z        PSCENC =         0.25451870
  Ewald energy   TEWEN  =       122.81871916
  -Hartree energ DENC   =      -279.11701546
  -exchange      EXHF   =         0.00000000
  -V(xc)+E(xc)   XCENC  =        24.56519182
  PAW double counting   =       444.70221776     -445.47651626
  entropy T*S    EENTRO =        -0.00000000
  eigenvalues    EBANDS =       -88.79812318
  atomic energy  EATOM  =       197.04175453
  Solvation  Ediel_sol  =         0.00000000
  ---------------------------------------------------
  free energy    TOTEN  =       -24.00925292 eV

  energy without entropy =      -24.00925292  energy(sigma->0) =      -24.00925292


--------------------------------------------------------------------------------------------------------




 average (electrostatic) potential at core
  the test charge radii are     0.5201  0.6991
  (the norm of the test charge is              1.0000)
       1 -41.3867       2 -41.3006       3 -41.4567       4 -41.4034       5 -58.0557
 
 
 
 E-fermi :  -8.2299     XC(G=0):  -0.7258     alpha+bet : -0.2213


 k-point     1 :       0.2500    0.2500    0.2500
  band No.  band energies     occupation 
      1     -16.7515      2.00000
      2      -9.2633      2.00000
      3      -9.2211      2.00000
      4      -9.1631      2.00000
      5      -0.3300      0.00000
      6       0.5943      0.00000
      7       0.6864      0.00000
      8       0.7160      0.00000

 k-point     2 :      -0.2500    0.2500    0.2500
  band No.  band energies     occupation 
      1     -16.7515      2.00000
      2      -9.2633      2.00000
      3      -9.2211      2.00000
      4      -9.1631      2.00000
      5      -0.3311      0.00000
      6       0.5879      0.00000
      7       0.6905      0.00000
      8       0.7209      0.00000

 k-point     3 :       0.2500   -0.2500    0.2500
  band No.  band energies     occupation 
      1     -16.7515      2.00000
      2      -9.2633      2.00000
      3      -9.2212      2.00000
      4      -9.1631      2.00000
      5      -0.3304      0.00000
      6       0.5868      0.00000
      7       0.6910      0.00000
      8       0.7188      0.00000

 k-point     4 :      -0.2500   -0.2500    0.2500
  band No.  band energies     occupation 
      1     -16.7516      2.00000
      2      -9.2633      2.00000
      3      -9.2211      2.00000
      4      -9.1632      2.00000
      5      -0.3313      0.00000
      6       0.5964      0.00000
      7       0.6903      0.00000
      8       0.7179      0.00000


--------------------------------------------------------------------------------------------------------


 soft charge-density along one line, spin component           1
         0         1         2         3         4         5         6         7         8         9
 total charge-density along one line
 
 pseudopotential strength for first ion, spin component:           1
 -2.340  -4.032  -0.001  -0.001   0.001
 -4.032  -6.861  -0.003  -0.004   0.002
 -0.001  -0.003  -0.338   0.002  -0.001
 -0.001  -0.004   0.002  -0.337  -0.001
  0.001   0.002  -0.001  -0.001  -0.339
 total augmentation occupancy for first ion, spin component:           1
  3.483  -0.629   0.228   0.318  -0.130
 -0.629   0.127  -0.042  -0.059   0.024
  0.228  -0.042   0.021   0.017  -0.007
  0.318  -0.059   0.017   0.033  -0.010
 -0.130   0.024  -0.007  -0.010   0.012


------------------------ aborting loop because EDIFF is reached ----------------------------------------


    CHARGE:  cpu time    0.0136: real time    0.0139
    FORLOC:  cpu time    0.0095: real time    0.0096
    FORNL :  cpu time    0.0164: real time    0.0166
    STRESS:  cpu time    0.1305: real time    0.1322
    FORCOR:  cpu time    0.1104: real time    0.1138
    FORHAR:  cpu time    0.0348: real time    0.0360
    MIXING:  cpu time    0.0041: real time    0.0041
    OFIELD:  cpu time    0.0000: real time    0.0000

  FORCE on cell =-STRESS in cart. coord.  units (eV):
  Direction    XX          YY          ZZ          XY          YZ          ZX
  --------------------------------------------------------------------------------------
  Alpha Z     0.25452     0.25452     0.25452
  Ewald      41.13904    40.20314    41.47649     0.15732    -0.05901    -0.28300
  Hartree    93.97510    91.64245    93.50032    -0.09767    -0.00485    -0.12121
  E(xc)     -27.01942   -27.01975   -27.02052    -0.00130     0.00034    -0.00106
  Local    -194.38988  -190.57169  -193.92931     0.05923     0.03748     0.36406
  n-local   -15.46623   -15.52128   -15.50131    -0.01647     0.00563    -0.00071
  augment     0.12642     0.12146     0.12341    -0.00121     0.00033     0.00027
  Kinetic    99.97445    99.99230   100.02807     0.06404    -0.02222     0.05379
  Fock        0.00000     0.00000     0.00000     0.00000     0.00000     0.00000
  -------------------------------------------------------------------------------------
  Total      -1.40599    -0.89886    -1.06832     0.16394    -0.04229     0.01214
  in kB      -2.36673    -1.51306    -1.79831     0.27596    -0.07118     0.02043
  external pressure =       -1.89 kB  Pullay stress =        0.00 kB

  kinetic pressure (ideal gas correction) =      0.01 kB
  total pressure  =     -1.88 kB
  Total+kin.    -2.350      -1.512      -1.789       0.276      -0.070       0.025

 VOLUME and BASIS-vectors are now :
 -----------------------------------------------------------------------------
  energy-cutoff  :      400.00
  volume of cell :      951.80
      direct lattice vectors                 reciprocal lattice vectors
     9.768621201  0.000000000  0.000000000     0.102368592  0.000177956  0.000482648
    -0.017286712  9.944139539  0.000000000     0.000000000  0.100561743  0.000139727
    -0.046172803 -0.013614227  9.798171212     0.000000000  0.000000000  0.102059862

  length of vectors
     9.768621201  9.944154565  9.798289462     0.102369885  0.100561840  0.102059862


 FORCES acting on ions
    electron-ion (+dipol)            ewald-force                    non-local-force                 convergence-correction
 -----------------------------------------------------------------------------------------------
   -.163E+02 0.286E+02 0.400E+02   0.178E+02 -.312E+02 -.436E+02   -.166E+01 0.291E+01 0.407E+01   0.389E-04 -.516E-04 -.768E-04
   0.508E+02 -.609E+01 0.299E+01   -.551E+02 0.659E+01 -.325E+01   0.507E+01 -.607E+00 0.293E+00   -.732E-04 0.106E-04 -.944E-05
   -.231E+02 -.468E+02 0.119E+01   0.253E+02 0.515E+02 -.131E+01   -.238E+01 -.485E+01 0.122E+00   0.587E-04 0.998E-04 -.820E-05
   -.117E+02 0.242E+02 -.444E+02   0.128E+02 -.265E+02 0.486E+02   -.119E+01 0.247E+01 -.454E+01   0.345E-04 -.513E-04 0.893E-04
   0.673E+00 0.318E+00 0.340E+00   -.874E+00 -.402E+00 -.387E+00   -.264E+00 -.905E-01 -.113E-01   0.116E-04 -.102E-04 -.488E-04
 -----------------------------------------------------------------------------------------------
   0.426E+00 0.165E+00 0.728E-01   0.355E-14 0.000E+00 -.711E-14   -.426E+00 -.165E+00 -.727E-01   0.705E-04 -.262E-05 -.539E-04
 
 
 POSITION                                       TOTAL-FORCE (eV/Angst)
 -----------------------------------------------------------------------------------
      5.24039      4.02818      3.49910        -0.170781      0.296990      0.397596
      3.77436      4.77609      4.29378         0.818539     -0.107049      0.031847
      5.37667      5.63341      4.33388        -0.094288     -0.224924      0.003397
      5.13898      4.12568      5.30990        -0.087715      0.209813     -0.374694
      4.88938      4.64283      4.35890        -0.466209     -0.175008     -0.058146
 -----------------------------------------------------------------------------------
    total drift:                               -0.000454     -0.000178     -0.000001


--------------------------------------------------------------------------------------------------------



  FREE ENERGIE OF THE ION-ELECTRON SYSTEM (eV)
  ---------------------------------------------------
  free  energy   TOTEN  =       -24.00925292 eV

  energy  without entropy=      -24.00925292  energy(sigma->0) =      -24.00925292
 
 d Force =-0.5933878E-02[-0.647E-02,-0.540E-02]  d Energy =-0.5936437E-02 0.256E-05
 d Force = 0.6336763E+00[ 0.632E+00, 0.635E+00]  d Ewald  = 0.6336740E+00 0.230E-05


--------------------------------------------------------------------------------------------------------


    POTLOK:  cpu time    0.1057: real time    0.1097


--------------------------------------------------------------------------------------------------------


 stress matrix after NEB project (eV)
     -1.40599      0.16394      0.01214
      0.16394     -0.89886     -0.04229
      0.01214     -0.04229     -1.06832
  FORCES: max atom, RMS     0.826123    0.540536
  FORCE total and by dimension    1.208674    0.818539
  Stress total and by dimension    1.995918    1.405992
           RANDOM_SEED =         581349558               30                0
   IONSTEP:  cpu time    0.0002: real time    0.0002

  ENERGY OF THE ELECTRON-ION-THERMOSTAT SYSTEM (eV)
  ---------------------------------------------------
% ion-electron   TOTEN  =       -24.009253  see above
  kinetic energy EKIN   =         0.005420
  kin. lattice  EKIN_LAT=         0.000000  (temperature   10.48 K)
  nose potential ES     =         0.000000
  nose kinetic   EPS    =         0.000000
  ---------------------------------------------------
  total energy   ETOTAL =       -24.003833 eV

  maximum distance moved by ions :      0.26E-03


 mean value of Nose-termostat <S>:     1.000 mean value of <T> :    26.789
 mean temperature <T/S>/<1/S>  :    26.789

    WAVPRE:  cpu time    0.0415: real time    0.0426
    FEWALD:  cpu time    0.0003: real time    0.0003
    ORTHCH:  cpu time    0.0075: real time    0.0076
 Prediction of Wavefunctions ALPHA= 2.086 BETA=-1.113
    POTLOK:  cpu time    0.1038: real time    0.1068
    EDDIAG:  cpu time    0.0299: real time    0.0308
     LOOP+:  cpu time    1.6151: real time    1.6622
    4ORBIT:  cpu time    0.0000: real time    0.0004

 total amount of memory used by VASP MPI-rank0    52251. kBytes
=======================================================================

   base      :      30000. kBytes
   nonl-proj :       2569. kBytes
   fftplans  :       7000. kBytes
   grid      :      11005. kBytes
   one-center:          6. kBytes
   wavefun   :       1671. kBytes
 
  
  
 General timing and accounting informations for this job:
 ========================================================
  
                  Total CPU time used (sec):       22.730
                            User time (sec):       21.315
                          System time (sec):        1.416
                         Elapsed time (sec):       23.915
  
                   Maximum memory used (kb):      165456.
                   Average memory used (kb):           0.
  
                          Minor page faults:       220134
                          Major page faults:          193
                 Voluntary context switches:          638
