unknown system                          
           1
     9.768621    0.000000    0.000000
    -0.017287    9.944140    0.000000
    -0.046173   -0.013614    9.798171
   H    C 
   4   1
Direct configuration=     1
   0.53779383  0.40715613  0.36006508
   0.39484167  0.48050498  0.43903800
   0.55205580  0.56587531  0.44220420
   0.52809671  0.41654754  0.53924286
   0.50330194  0.46742698  0.44478852
Direct configuration=     2
   0.53784126  0.40708243  0.35994308
   0.39459695  0.48052732  0.43901082
   0.55210480  0.56592895  0.44220672
   0.52814147  0.41650197  0.53935430
   0.50331056  0.46743058  0.44479145
Direct configuration=     3
   0.53793112  0.40694229  0.35970918
   0.39413052  0.48056948  0.43895895
   0.55219962  0.56603192  0.44221199
   0.52822785  0.41641521  0.53956781
   0.50332682  0.46743739  0.44479703
Direct configuration=     4
   0.53805543  0.40674879  0.35938264
   0.39348514  0.48062648  0.43888514
   0.55233488  0.56617555  0.44221996
   0.52835042  0.41629588  0.53986597
   0.50334874  0.46744673  0.44480487
Direct configuration=     5
   0.53820336  0.40651983  0.35898981
   0.39271824  0.48069169  0.43879321
   0.55250299  0.56634774  0.44223052
   0.52850168  0.41615578  0.54022482
   0.50337368  0.46745770  0.44481448
Direct configuration=     6
   0.53836228  0.40627619  0.35856149
   0.39189521  0.48075766  0.43868762
   0.55269481  0.56653403  0.44224352
   0.52867274  0.41600868  0.54061618
   0.50339876  0.46746922  0.44482527
Direct configuration=     7
   0.53851900  0.40603966  0.35813020
   0.39108305  0.48081693  0.43857316
   0.55290024  0.56671871  0.44225874
   0.52885402  0.41586910  0.54101004
   0.50342113  0.46748023  0.44483664
Direct configuration=     8
   0.53866079  0.40583129  0.35772764
   0.39034485  0.48086265  0.43845463
   0.55310887  0.56688591  0.44227595
   0.52903598  0.41575108  0.54137694
   0.50343827  0.46748968  0.44484805
Direct configuration=     9
   0.53877636  0.40566972  0.35738234
   0.38973537  0.48088911  0.43833653
   0.55331068  0.56702081  0.44229483
   0.52920971  0.41566707  0.54169014
   0.50344813  0.46749669  0.44485898
Direct configuration=    10
   0.53885666  0.40556991  0.35711780
   0.38929796  0.48089212  0.43822288
   0.55349664  0.56711079  0.44231498
   0.52936752  0.41562704  0.54192743
   0.50344924  0.46750059  0.44486904
