       N       E                     dE             d eps       ncg     rms          rms(c)
DAV:   1     0.123378540112E+02    0.12338E+02   -0.20113E+03    96   0.421E+02
DAV:   2    -0.229790689085E+02   -0.35317E+02   -0.35317E+02    64   0.112E+02
DAV:   3    -0.270298214666E+02   -0.40508E+01   -0.40508E+01    64   0.442E+01
DAV:   4    -0.271975444477E+02   -0.16772E+00   -0.16772E+00   128   0.970E+00
DAV:   5    -0.271976006465E+02   -0.56199E-04   -0.56199E-04    96   0.200E-01    0.830E+00
RMM:   6    -0.245665590931E+02    0.26310E+01   -0.47722E+00    64   0.132E+01    0.412E+00
RMM:   7    -0.241222314263E+02    0.44433E+00   -0.98865E-01    64   0.571E+00    0.221E+00
RMM:   8    -0.239801100373E+02    0.14212E+00   -0.16334E-01    64   0.284E+00    0.231E-01
RMM:   9    -0.239746131816E+02    0.54969E-02   -0.10620E-02    64   0.680E-01    0.190E-01
RMM:  10    -0.239680401068E+02    0.65731E-02   -0.24223E-02    64   0.840E-01    0.264E-01
RMM:  11    -0.239692073551E+02   -0.11672E-02   -0.10370E-02    64   0.621E-01    0.115E-01
RMM:  12    -0.239778445869E+02   -0.86372E-02   -0.21550E-03    64   0.281E-01    0.108E-01
RMM:  13    -0.239786659198E+02   -0.82133E-03   -0.13272E-03    64   0.198E-01    0.272E-02
RMM:  14    -0.239815063101E+02   -0.28404E-02   -0.78497E-04    64   0.166E-01    0.144E-02
RMM:  15    -0.239817604512E+02   -0.25414E-03   -0.11358E-04    64   0.553E-02    0.233E-02
RMM:  16    -0.239820001381E+02   -0.23969E-03   -0.13525E-04    64   0.654E-02    0.274E-03
RMM:  17    -0.239820444022E+02   -0.44264E-04   -0.68319E-06    64   0.173E-02    0.309E-03
RMM:  18    -0.239820636254E+02   -0.19223E-04   -0.17871E-06    48   0.791E-03    0.707E-04
RMM:  19    -0.239820686466E+02   -0.50212E-05   -0.34309E-06    60   0.108E-02    0.309E-03
RMM:  20    -0.239820691814E+02   -0.53471E-06   -0.11069E-06    48   0.652E-03
    1 T=     1. E= -.23981309E+02 F= -.23982069E+02 E0= -.23982069E+02  EK= 0.76021E-03 SP= 0.00E+00 SK= 0.00E+00
       N       E                     dE             d eps       ncg     rms          rms(c)
DAV:   1    -0.239880406357E+02   -0.59720E-02   -0.67361E-03    88   0.734E-01    0.440E-02
RMM:   2    -0.239879821760E+02    0.58460E-04   -0.18625E-04    64   0.907E-02    0.184E-02
RMM:   3    -0.239879818449E+02    0.33111E-06   -0.81111E-05    64   0.550E-02    0.853E-03
RMM:   4    -0.239879823671E+02   -0.52224E-06   -0.58974E-06    64   0.166E-02
    2 T=    13. E= -.23981404E+02 F= -.23987982E+02 E0= -.23987982E+02  EK= 0.65788E-02 SP= 0.00E+00 SK= 0.00E+00
       N       E                     dE             d eps       ncg     rms          rms(c)
DAV:   1    -0.239982839796E+02   -0.10302E-01   -0.48693E-03    88   0.679E-01    0.496E-03
RMM:   2    -0.239982922092E+02   -0.82296E-05   -0.76035E-05    64   0.795E-02    0.292E-03
RMM:   3    -0.239982931643E+02   -0.95507E-06   -0.33713E-06    52   0.163E-02    0.248E-03
RMM:   4    -0.239982943076E+02   -0.11433E-05   -0.11502E-06    48   0.869E-03    0.447E-04
RMM:   5    -0.239982947656E+02   -0.45799E-06   -0.22268E-07    48   0.471E-03
    3 T=    32. E= -.23981576E+02 F= -.23998295E+02 E0= -.23998295E+02  EK= 0.16719E-01 SP= 0.00E+00 SK= 0.00E+00
       N       E                     dE             d eps       ncg     rms          rms(c)
DAV:   1    -0.240102733262E+02   -0.11979E-01   -0.11584E-03    96   0.211E-01    0.850E-03
RMM:   2    -0.240102744617E+02   -0.11354E-05   -0.14332E-05    64   0.274E-02    0.352E-03
RMM:   3    -0.240102770750E+02   -0.26133E-05   -0.34282E-06    60   0.121E-02    0.114E-03
RMM:   4    -0.240102785204E+02   -0.14455E-05   -0.19630E-07    48   0.367E-03    0.601E-04
RMM:   5    -0.240102804052E+02   -0.18847E-05   -0.26868E-07    48   0.331E-03    0.596E-04
RMM:   6    -0.240102805697E+02   -0.16452E-06   -0.65984E-08    45   0.186E-03
    4 T=    55. E= -.23981795E+02 F= -.24010281E+02 E0= -.24010281E+02  EK= 0.28486E-01 SP= 0.00E+00 SK= 0.00E+00
       N       E                     dE             d eps       ncg     rms          rms(c)
DAV:   1    -0.240206067053E+02   -0.10326E-01   -0.18408E-03    72   0.255E-01    0.352E-03
RMM:   2    -0.240206097781E+02   -0.30729E-05   -0.82198E-06    63   0.266E-02    0.155E-03
RMM:   3    -0.240206119609E+02   -0.21827E-05   -0.29457E-07    48   0.491E-03    0.975E-04
RMM:   4    -0.240206156169E+02   -0.36560E-05   -0.26476E-07    48   0.339E-03    0.251E-04
RMM:   5    -0.240206173978E+02   -0.17809E-05   -0.10638E-07    47   0.195E-03    0.204E-04
RMM:   6    -0.240206192079E+02   -0.18101E-05   -0.27925E-07    44   0.256E-03    0.170E-04
RMM:   7    -0.240206194208E+02   -0.21293E-06    0.00000E+00    32   0.141E-03
    5 T=    75. E= -.23981999E+02 F= -.24020619E+02 E0= -.24020619E+02  EK= 0.38620E-01 SP= 0.00E+00 SK= 0.00E+00
       N       E                     dE             d eps       ncg     rms          rms(c)
DAV:   1    -0.240262416285E+02   -0.56224E-02   -0.22581E-03    64   0.293E-01    0.231E-03
RMM:   2    -0.240262479064E+02   -0.62778E-05   -0.19301E-05    64   0.412E-02    0.157E-03
RMM:   3    -0.240262505871E+02   -0.26807E-05   -0.52055E-07    48   0.678E-03    0.124E-03
RMM:   4    -0.240262565509E+02   -0.59639E-05   -0.26559E-07    48   0.373E-03    0.333E-04
RMM:   5    -0.240262593334E+02   -0.27824E-05   -0.50885E-08    44   0.213E-03    0.195E-04
RMM:   6    -0.240262640249E+02   -0.46915E-05   -0.36440E-07    45   0.292E-03    0.340E-04
RMM:   7    -0.240262642252E+02   -0.20037E-06    0.00000E+00    32   0.129E-03
    6 T=    85. E= -.23982128E+02 F= -.24026264E+02 E0= -.24026264E+02  EK= 0.44136E-01 SP= 0.00E+00 SK= 0.00E+00
       N       E                     dE             d eps       ncg     rms          rms(c)
DAV:   1    -0.240253703129E+02    0.89371E-03   -0.22133E-03    64   0.302E-01    0.289E-03
RMM:   2    -0.240253737400E+02   -0.34271E-05   -0.19835E-05    64   0.510E-02    0.206E-03
RMM:   3    -0.240253745230E+02   -0.78307E-06   -0.37765E-07    48   0.541E-03    0.159E-03
RMM:   4    -0.240253768919E+02   -0.23689E-05   -0.23365E-07    48   0.406E-03    0.307E-04
RMM:   5    -0.240253771485E+02   -0.25664E-06   -0.14076E-08    36   0.163E-03
    7 T=    84. E= -.23982134E+02 F= -.24025377E+02 E0= -.24025377E+02  EK= 0.43243E-01 SP= 0.00E+00 SK= 0.00E+00
       N       E                     dE             d eps       ncg     rms          rms(c)
DAV:   1    -0.240180891645E+02    0.72877E-02   -0.19414E-03    64   0.289E-01    0.480E-03
RMM:   2    -0.240180919383E+02   -0.27739E-05   -0.30054E-05    64   0.585E-02    0.244E-03
RMM:   3    -0.240180920796E+02   -0.14125E-06   -0.57165E-07    48   0.690E-03    0.182E-03
RMM:   4    -0.240180922515E+02   -0.17187E-06   -0.28568E-07    48   0.477E-03
    8 T=    70. E= -.23981999E+02 F= -.24018092E+02 E0= -.24018092E+02  EK= 0.36093E-01 SP= 0.00E+00 SK= 0.00E+00
       N       E                     dE             d eps       ncg     rms          rms(c)
DAV:   1    -0.240067392374E+02    0.11353E-01   -0.14707E-03    64   0.256E-01    0.428E-03
RMM:   2    -0.240067419001E+02   -0.26627E-05   -0.27090E-05    64   0.572E-02    0.391E-03
RMM:   3    -0.240067418860E+02    0.14082E-07   -0.57637E-07    48   0.656E-03    0.315E-03
RMM:   4    -0.240067425693E+02   -0.68337E-06   -0.29157E-07    48   0.501E-03
    9 T=    48. E= -.23981754E+02 F= -.24006743E+02 E0= -.24006743E+02  EK= 0.24989E-01 SP= 0.00E+00 SK= 0.00E+00
       N       E                     dE             d eps       ncg     rms          rms(c)
DAV:   1    -0.239952874243E+02    0.11454E-01   -0.81225E-04    64   0.207E-01    0.451E-03
RMM:   2    -0.239952892244E+02   -0.18001E-05   -0.19323E-05    64   0.479E-02    0.208E-03
RMM:   3    -0.239952893507E+02   -0.12631E-06   -0.37215E-07    48   0.579E-03    0.160E-03
RMM:   4    -0.239952896238E+02   -0.27308E-06   -0.99181E-08    40   0.361E-03
   10 T=    27. E= -.23981489E+02 F= -.23995290E+02 E0= -.23995290E+02  EK= 0.13800E-01 SP= 0.00E+00 SK= 0.00E+00
