 vasp.5.4.4.18Apr17-6-g9f103f2a35 (build Nov 25 2021 15:25:00) complex          
  
 executed on             LinuxIFC date 2022.02.21  10:17:45
 running on   16 total cores
 distrk:  each k-point on   16 cores,    1 groups
 distr:  one band on NCORES_PER_BAND=   4 cores,    4 groups


--------------------------------------------------------------------------------------------------------


 INCAR:
 POTCAR:    PAW_PBE H 15Jun2001                   
 POTCAR:    PAW_PBE C 08Apr2002                   
 POTCAR:    PAW_PBE H 15Jun2001                   
   VRHFIN =H: ultrasoft test                                                    
   LEXCH  = PE                                                                  
   EATOM  =    12.4884 eV,    0.9179 Ry                                         
                                                                                
   TITEL  = PAW_PBE H 15Jun2001                                                 
   LULTRA =        F    use ultrasoft PP ?                                      
   IUNSCR =        0    unscreen: 0-lin 1-nonlin 2-no                           
   RPACOR =    0.000    partial core radius                                     
   POMASS =    1.000; ZVAL   =    1.000    mass and valenz                      
   RCORE  =    1.100    outmost cutoff radius                                   
   RWIGS  =    0.700; RWIGS  =    0.370    wigner-seitz radius (au A)           
   ENMAX  =  250.000; ENMIN  =  200.000 eV                                      
   RCLOC  =    0.701    cutoff for local pot                                    
   LCOR   =        T    correct aug charges                                     
   LPAW   =        T    paw PP                                                  
   EAUG   =  400.000                                                            
   RMAX   =    1.123    core radius for proj-oper                               
   RAUG   =    1.200    factor for augmentation sphere                          
   RDEP   =    1.112    radius for radial grids                                 
   RDEPT  =    0.926    core radius for aug-charge                              
                                                                                
   Atomic configuration                                                         
    2 entries                                                                   
     n  l   j            E        occ.                                          
     1  0  0.50        -6.4927   1.0000                                         
     2  1  0.50        -3.4015   0.0000                                         
   Description                                                                  
     l       E           TYP  RCUT    TYP  RCUT                                 
     0     -6.4927494     23  1.100                                             
     0      6.8029130     23  1.100                                             
     1     -4.0817478     23  1.100                                             
  local pseudopotential read in
  atomic valenz-charges read in
  non local Contribution for L=           0  read in
    real space projection operators read in
  non local Contribution for L=           0  read in
    real space projection operators read in
  non local Contribution for L=           1  read in
    real space projection operators read in
    PAW grid and wavefunctions read in
 
   number of l-projection  operators is LMAX  =           3
   number of lm-projection operators is LMMAX =           5
 
 POTCAR:    PAW_PBE C 08Apr2002                   
   VRHFIN =C: s2p2                                                              
   LEXCH  = PE                                                                  
   EATOM  =   147.1560 eV,   10.8157 Ry                                         
                                                                                
   TITEL  = PAW_PBE C 08Apr2002                                                 
   LULTRA =        F    use ultrasoft PP ?                                      
   IUNSCR =        1    unscreen: 0-lin 1-nonlin 2-no                           
   RPACOR =    1.200    partial core radius                                     
   POMASS =   12.011; ZVAL   =    4.000    mass and valenz                      
   RCORE  =    1.500    outmost cutoff radius                                   
   RWIGS  =    1.630; RWIGS  =    0.863    wigner-seitz radius (au A)           
   ENMAX  =  400.000; ENMIN  =  300.000 eV                                      
   ICORE  =        2    local potential                                         
   LCOR   =        T    correct aug charges                                     
   LPAW   =        T    paw PP                                                  
   EAUG   =  644.873                                                            
   DEXC   =    0.000                                                            
   RMAX   =    1.529    core radius for proj-oper                               
   RAUG   =    1.300    factor for augmentation sphere                          
   RDEP   =    1.501    radius for radial grids                                 
   RDEPT  =    1.300    core radius for aug-charge                              
                                                                                
   Atomic configuration                                                         
    4 entries                                                                   
     n  l   j            E        occ.                                          
     1  0  0.50      -273.3789   2.0000                                         
     2  0  0.50       -13.7508   2.0000                                         
     2  1  0.50        -5.2854   2.0000                                         
     3  2  1.50        -5.4423   0.0000                                         
   Description                                                                  
     l       E           TYP  RCUT    TYP  RCUT                                 
     0    -13.7508458     23  1.200                                             
     0     -8.2022199     23  1.200                                             
     1     -5.2854383     23  1.500                                             
     1     34.0145650     23  1.500                                             
     2     -5.4423304      7  1.500                                             
  local pseudopotential read in
  partial core-charges read in
  partial kinetic energy density read in
  atomic valenz-charges read in
  non local Contribution for L=           0  read in
    real space projection operators read in
  non local Contribution for L=           0  read in
    real space projection operators read in
  non local Contribution for L=           1  read in
    real space projection operators read in
  non local Contribution for L=           1  read in
    real space projection operators read in
    PAW grid and wavefunctions read in
 
   number of l-projection  operators is LMAX  =           4
   number of lm-projection operators is LMMAX =           8
 
  PAW_PBE H 15Jun2001                   :
 energy of atom  1       EATOM=  -12.4884
 kinetic energy error for atom=    0.0098 (will be added to EATOM!!)
  PAW_PBE C 08Apr2002                   :
 energy of atom  2       EATOM= -147.1560
 kinetic energy error for atom=    0.0288 (will be added to EATOM!!)
 
 
 POSCAR:  H  C                                   
  positions in cartesian coordinates
  No initial velocities read in
 exchange correlation table for  LEXCH =        8
   RHO(1)=    0.500       N(1)  =     2000
   RHO(2)=  100.500       N(2)  =     4000

 VTST: version 3.2, (02/03/18)

 CHAIN: initializing optimizer
 
 OPT: Using VASP Dynamics algorithm
 CHAIN: Read ICHAIN            0
 
 POSCAR:  H  C                                   
  positions in cartesian coordinates
  No initial velocities read in
 


--------------------------------------------------------------------------------------------------------


 ion  position               nearest neighbor table
   1  0.538  0.407  0.361-   5 1.14
   2  0.395  0.480  0.438-   5 1.11
   3  0.552  0.565  0.443-   5 1.12
   4  0.528  0.416  0.539-   5 1.11
   5  0.503  0.466  0.445-   2 1.11   4 1.11   3 1.12   1 1.14
 

IMPORTANT INFORMATION: All symmetrisations will be switched off!
NOSYMM: (Re-)initialisation of all symmetry stuff for point group C_1.

 
 

Automatic generation of k-mesh.
 generate k-points for:    2    2    2
Space group operators:
 irot       det(A)        alpha          n_x          n_y          n_z        tau_x        tau_y        tau_z
    1     1.000000     0.000000     1.000000     0.000000     0.000000     0.000000     0.000000     0.000000
 
 Subroutine IBZKPT returns following result:
 ===========================================
 
 Found      4 irreducible k-points:
 
 Following reciprocal coordinates:
            Coordinates               Weight
  0.250000  0.250000  0.250000      2.000000
 -0.250000  0.250000  0.250000      2.000000
  0.250000 -0.250000  0.250000      2.000000
 -0.250000 -0.250000  0.250000      2.000000
 
 Following cartesian coordinates:
            Coordinates               Weight
  0.024872  0.025003  0.024462      2.000000
 -0.024872  0.023558  0.023571      2.000000
  0.024872 -0.023558  0.025087      2.000000
 -0.024872 -0.025003  0.024195      2.000000
 


--------------------------------------------------------------------------------------------------------




 Dimension of arrays:
   k-points           NKPTS =      4   k-points in BZ     NKDIM =      4   number of bands    NBANDS=      8
   number of dos      NEDOS =    301   number of ions     NIONS =      5
   non local maximal  LDIM  =      4   non local SUM 2l+1 LMDIM =      8
   total plane-waves  NPLWV = 343000
   max r-space proj   IRMAX =      1   max aug-charges    IRDMAX=   4005
   dimension x,y,z NGX =    70 NGY =   70 NGZ =   70
   dimension x,y,z NGXF=   140 NGYF=  140 NGZF=  140
   support grid    NGXF=   140 NGYF=  140 NGZF=  140
   ions per type =               4   1
   NGX,Y,Z   is equivalent  to a cutoff of  11.58, 11.30, 11.32 a.u.
   NGXF,Y,Z  is equivalent  to a cutoff of  23.15, 22.60, 22.64 a.u.

 SYSTEM =  unknown system                          
 POSCAR =   H  C                                   

 Startparameter for this run:
   NWRITE =      2    write-flag & timer
   PREC   = a         normal or accurate (medium, high low for compatibility)
   ISTART =      0    job   : 0-new  1-cont  2-samecut
   ICHARG =      2    charge: 1-file 2-atom 10-const
   ISPIN  =      1    spin polarized calculation?
   LNONCOLLINEAR =      F non collinear calculations
   LSORBIT =      F    spin-orbit coupling
   INIWAV =      1    electr: 0-lowe 1-rand  2-diag
   LASPH  =      F    aspherical Exc in radial PAW
   METAGGA=      F    non-selfconsistent MetaGGA calc.

 Electronic Relaxation 1
   ENCUT  =  400.0 eV  29.40 Ry    5.42 a.u.  16.39 16.80 16.76*2*pi/ulx,y,z
   ENINI  =  400.0     initial cutoff
   ENAUG  =  644.9 eV  augmentation charge cutoff
   NELM   =    120;   NELMIN=  4; NELMDL= -5     # of ELM steps 
   EDIFF  = 0.1E-05   stopping-criterion for ELM
   LREAL  =      F    real-space projection
   NLSPLINE    = F    spline interpolate recip. space projectors
   LCOMPAT=      F    compatible to vasp.4.4
   GGA_COMPAT  = T    GGA compatible to vasp.4.4-vasp.4.6
   LMAXPAW     = -100 max onsite density
   LMAXMIX     =    2 max onsite mixed and CHGCAR
   VOSKOWN=      0    Vosko Wilk Nusair interpolation
   ROPT   =    0.00000   0.00000
 Ionic relaxation
   EDIFFG = 0.1E-04   stopping-criterion for IOM
   NSW    =     10    number of steps for IOM
   NBLOCK =      1;   KBLOCK =     10    inner block; outer block 
   IBRION =      0    ionic relax: 0-MD 1-quasi-New 2-CG
   NFREE  =      0    steps in history (QN), initial steepest desc. (CG)
   ISIF   =      2    stress and relaxation
   IWAVPR =     12    prediction:  0-non 1-charg 2-wave 3-comb
   ISYM   =      0    0-nonsym 1-usesym 2-fastsym
   LCORR  =      T    Harris-Foulkes like correction to forces

   POTIM  = 0.5000    time-step for ionic-motion
   TEIN   =    0.0    initial temperature
   TEBEG  =    0.0;   TEEND  =   0.0 temperature during run
   SMASS  =  -3.00    Nose mass-parameter (am)
   estimated Nose-frequenzy (Omega)   =  0.10E-29 period in steps =****** mass=  -0.231E-26a.u.
   SCALEE = 1.0000    scale energy and forces
   NPACO  =    256;   APACO  = 16.0  distance and # of slots for P.C.
   PSTRESS=    0.0 pullay stress

  Mass of Ions in am
   POMASS =   1.00 12.01
  Ionic Valenz
   ZVAL   =   1.00  4.00
  Atomic Wigner-Seitz radii
   RWIGS  =  -1.00 -1.00
  virtual crystal weights 
   VCA    =   1.00  1.00
   NELECT =       8.0000    total number of electrons
   NUPDOWN=      -1.0000    fix difference up-down

 DOS related values:
   EMIN   =  10.00;   EMAX   =-10.00  energy-range for DOS
   EFERMI =   0.00
   ISMEAR =     0;   SIGMA  =   0.20  broadening in eV -4-tet -1-fermi 0-gaus

 Electronic relaxation 2 (details)
   IALGO  =     68    algorithm
   LDIAG  =      T    sub-space diagonalisation (order eigenvalues)
   LSUBROT=      F    optimize rotation matrix (better conditioning)
   TURBO    =      0    0=normal 1=particle mesh
   IRESTART =      0    0=no restart 2=restart with 2 vectors
   NREBOOT  =      0    no. of reboots
   NMIN     =      0    reboot dimension
   EREF     =   0.00    reference energy to select bands
   IMIX   =      4    mixing-type and parameters
     AMIX     =   0.40;   BMIX     =  1.00
     AMIX_MAG =   1.60;   BMIX_MAG =  1.00
     AMIN     =   0.10
     WC   =   100.;   INIMIX=   1;  MIXPRE=   1;  MAXMIX= -45

 Intra band minimization:
   WEIMIN = 0.0010     energy-eigenvalue tresh-hold
   EBREAK =  0.31E-07  absolut break condition
   DEPER  =   0.30     relativ break condition  

   TIME   =   0.40     timestep for ELM

  volume/ion in A,a.u.               =     212.70      1435.37
  Fermi-wavevector in a.u.,A,eV,Ry     =   0.320769  0.606166  1.399943  0.102893
  Thomas-Fermi vector in A             =   1.207676
 
 Write flags
   LWAVE        =      F    write WAVECAR
   LDOWNSAMPLE  =      F    k-point downsampling of WAVECAR
   LCHARG       =      F    write CHGCAR
   LVTOT        =      F    write LOCPOT, total local potential
   LVHAR        =      F    write LOCPOT, Hartree potential only
   LELF         =      F    write electronic localiz. function (ELF)
   LORBIT       =      0    0 simple, 1 ext, 2 COOP (PROOUT), +10 PAW based schemes


 Dipole corrections
   LMONO  =      F    monopole corrections only (constant potential shift)
   LDIPOL =      F    correct potential (dipole corrections)
   IDIPOL =      0    1-x, 2-y, 3-z, 4-all directions 
   EPSILON=  1.0000000 bulk dielectric constant

 Exchange correlation treatment:
   GGA     =    --    GGA type
   LEXCH   =     8    internal setting for exchange type
   VOSKOWN=      0    Vosko Wilk Nusair interpolation
   LHFCALC =     F    Hartree Fock is set to
   LHFONE  =     F    Hartree Fock one center treatment
   AEXX    =    0.0000 exact exchange contribution

 Linear response parameters
   LEPSILON=     F    determine dielectric tensor
   LRPA    =     F    only Hartree local field effects (RPA)
   LNABLA  =     F    use nabla operator in PAW spheres
   LVEL    =     F    velocity operator in full k-point grid
   LINTERFAST=   F  fast interpolation
   KINTER  =     0    interpolate to denser k-point grid
   CSHIFT  =0.1000    complex shift for real part using Kramers Kronig
   OMEGAMAX=  -1.0    maximum frequency
   DEG_THRESHOLD= 0.2000000E-02 threshold for treating states as degnerate
   RTIME   =   -0.100 relaxation time in fs
  (WPLASMAI=    0.000 imaginary part of plasma frequency in eV, 0.658/RTIME)
   DFIELD  = 0.0000000 0.0000000 0.0000000 field for delta impulse in time
 
 Orbital magnetization related:
   ORBITALMAG=     F  switch on orbital magnetization
   LCHIMAG   =     F  perturbation theory with respect to B field
   DQ        =  0.001000  dq finite difference perturbation B field
   LLRAUG    =     F  two centre corrections for induced B field



--------------------------------------------------------------------------------------------------------


 molecular dynamics for ions
   using a microcanonical ensemble
 charge density and potential will be updated during run
 non-spin polarized calculation
 RMM-DIIS sequential band-by-band and
  variant of blocked Davidson during initial phase
 perform sub-space diagonalisation
    before iterative eigenvector-optimisation
 modified Broyden-mixing scheme, WC =      100.0
 initial mixing is a Kerker type mixing with AMIX =  0.4000 and BMIX =      1.0000
 Hartree-type preconditioning will be used
 using additional bands            4
 reciprocal scheme for non local part
 use partial core corrections
 calculate Harris-corrections to forces 
   (improved forces if not selfconsistent)
 use gradient corrections 
 use of overlap-Matrix (Vanderbilt PP)
 Gauss-broadening in eV      SIGMA  =   0.20


--------------------------------------------------------------------------------------------------------


  energy-cutoff  :      400.00
  volume of cell :     1063.50
      direct lattice vectors                 reciprocal lattice vectors
    10.051640416  0.000000000  0.000000000     0.099486249  0.002890826  0.001783640
    -0.299185496 10.296309107  0.000000000     0.000000000  0.097122181 -0.001249514
    -0.188072079  0.132202716 10.275845841     0.000000000  0.000000000  0.097315590

  length of vectors
    10.051640416 10.300654988 10.278417019     0.099544221  0.097130219  0.097315590


 
 k-points in units of 2pi/SCALE and weight: read from INCAR                         
   0.02487156  0.02500325  0.02446243       0.250
  -0.02487156  0.02355784  0.02357061       0.250
   0.02487156 -0.02355784  0.02508719       0.250
  -0.02487156 -0.02500325  0.02419537       0.250
 
 k-points in reciprocal lattice and weights: read from INCAR                         
   0.25000000  0.25000000  0.25000000       0.250
  -0.25000000  0.25000000  0.25000000       0.250
   0.25000000 -0.25000000  0.25000000       0.250
  -0.25000000 -0.25000000  0.25000000       0.250
 
 position of ions in fractional coordinates (direct lattice) 
   0.53832907  0.40670230  0.36061397
   0.39452969  0.48037704  0.43843796
   0.55210030  0.56540115  0.44292730
   0.52811729  0.41647454  0.53923681
   0.50332651  0.46630741  0.44537175
 
 position of ions in cartesian coordinates  (Angst):
   5.22158941  4.23520678  3.70561356
   3.73949078  5.00407320  4.50532086
   5.29705162  5.88010123  4.55145266
   5.08242654  4.35943919  5.54111431
   4.83598268  4.86012462  4.57657148
 


--------------------------------------------------------------------------------------------------------


 k-point  1 :   0.2500 0.2500 0.2500  plane waves:   19323
 k-point  2 :  -0.2500 0.2500 0.2500  plane waves:   19315
 k-point  3 :   0.2500-0.2500 0.2500  plane waves:   19307
 k-point  4 :  -0.2500-0.2500 0.2500  plane waves:   19326

 maximum and minimum number of plane-waves per node :      4869     4807

 maximum number of plane-waves:     19326
 maximum index in each direction: 
   IXMAX=   16   IYMAX=   17   IZMAX=   16
   IXMIN=  -16   IYMIN=  -17   IZMIN=  -17


 parallel 3D FFT for wavefunctions:
    minimum data exchange during FFTs selected (reduces bandwidth)
 parallel 3D FFT for charge:
    minimum data exchange during FFTs selected (reduces bandwidth)


 total amount of memory used by VASP MPI-rank0    55595. kBytes
=======================================================================

   base      :      30000. kBytes
   nonl-proj :       2860. kBytes
   fftplans  :       8582. kBytes
   grid      :      13527. kBytes
   one-center:          6. kBytes
   wavefun   :        620. kBytes
 
     INWAV:  cpu time    0.0000: real time    0.0001
 Broyden mixing: mesh for mixing (old mesh)
   NGX = 33   NGY = 33   NGZ = 33
  (NGX  =140   NGY  =140   NGZ  =140)
  gives a total of  35937 points

 initial charge density was supplied:
 charge density of overlapping atoms calculated
 number of electron       8.0000000 magnetization 
 keeping initial charge density in first step


--------------------------------------------------------------------------------------------------------


 Maximum index for augmentation-charges          170 (set IRDMAX)


--------------------------------------------------------------------------------------------------------


 First call to EWALD:  gamma=   0.174
 Maximum number of real-space cells 3x 3x 3
 Maximum number of reciprocal cells 3x 3x 3

    FEWALD:  cpu time    0.0025: real time    0.0025


--------------------------------------- Iteration      1(   1)  ---------------------------------------


    POTLOK:  cpu time    0.1744: real time    0.1912
    SETDIJ:  cpu time    0.0050: real time    0.0061
     EDDAV:  cpu time    0.2191: real time    0.2426
       DOS:  cpu time    0.0012: real time    0.0012
    --------------------------------------------
      LOOP:  cpu time    0.3998: real time    0.4412

 eigenvalue-minimisations  :    96
 total energy-change (2. order) : 0.1233785E+02  (-0.2011287E+03)
 number of electron       8.0000000 magnetization 
 augmentation part        8.0000000 magnetization 

 Free energy of the ion-electron system (eV)
  ---------------------------------------------------
  alpha Z        PSCENC =         0.22778709
  Ewald energy   TEWEN  =       125.97669831
  -Hartree energ DENC   =      -243.68624783
  -exchange      EXHF   =         0.00000000
  -V(xc)+E(xc)   XCENC  =        21.88075956
  PAW double counting   =       117.05815612     -117.66307307
  entropy T*S    EENTRO =        -0.00000000
  eigenvalues    EBANDS =       -88.49798071
  atomic energy  EATOM  =       197.04175453
  Solvation  Ediel_sol  =         0.00000000
  ---------------------------------------------------
  free energy    TOTEN  =        12.33785401 eV

  energy without entropy =       12.33785401  energy(sigma->0) =       12.33785401


--------------------------------------------------------------------------------------------------------




--------------------------------------- Iteration      1(   2)  ---------------------------------------


     EDDAV:  cpu time    0.1615: real time    0.1637
       DOS:  cpu time    0.0002: real time    0.0002
    --------------------------------------------
      LOOP:  cpu time    0.1617: real time    0.1639

 eigenvalue-minimisations  :    64
 total energy-change (2. order) :-0.3531692E+02  (-0.3531692E+02)
 number of electron       8.0000000 magnetization 
 augmentation part        8.0000000 magnetization 

 Free energy of the ion-electron system (eV)
  ---------------------------------------------------
  alpha Z        PSCENC =         0.22778709
  Ewald energy   TEWEN  =       125.97669831
  -Hartree energ DENC   =      -243.68624783
  -exchange      EXHF   =         0.00000000
  -V(xc)+E(xc)   XCENC  =        21.88075956
  PAW double counting   =       117.05815612     -117.66307307
  entropy T*S    EENTRO =        -0.00000000
  eigenvalues    EBANDS =      -123.81490363
  atomic energy  EATOM  =       197.04175453
  Solvation  Ediel_sol  =         0.00000000
  ---------------------------------------------------
  free energy    TOTEN  =       -22.97906891 eV

  energy without entropy =      -22.97906891  energy(sigma->0) =      -22.97906891


--------------------------------------------------------------------------------------------------------




--------------------------------------- Iteration      1(   3)  ---------------------------------------


     EDDAV:  cpu time    0.1621: real time    0.1640
       DOS:  cpu time    0.0002: real time    0.0002
    --------------------------------------------
      LOOP:  cpu time    0.1623: real time    0.1642

 eigenvalue-minimisations  :    64
 total energy-change (2. order) :-0.4050753E+01  (-0.4050753E+01)
 number of electron       8.0000000 magnetization 
 augmentation part        8.0000000 magnetization 

 Free energy of the ion-electron system (eV)
  ---------------------------------------------------
  alpha Z        PSCENC =         0.22778709
  Ewald energy   TEWEN  =       125.97669831
  -Hartree energ DENC   =      -243.68624783
  -exchange      EXHF   =         0.00000000
  -V(xc)+E(xc)   XCENC  =        21.88075956
  PAW double counting   =       117.05815612     -117.66307307
  entropy T*S    EENTRO =        -0.00000000
  eigenvalues    EBANDS =      -127.86565619
  atomic energy  EATOM  =       197.04175453
  Solvation  Ediel_sol  =         0.00000000
  ---------------------------------------------------
  free energy    TOTEN  =       -27.02982147 eV

  energy without entropy =      -27.02982147  energy(sigma->0) =      -27.02982147


--------------------------------------------------------------------------------------------------------




--------------------------------------- Iteration      1(   4)  ---------------------------------------


     EDDAV:  cpu time    0.2697: real time    0.2801
       DOS:  cpu time    0.0002: real time    0.0002
    --------------------------------------------
      LOOP:  cpu time    0.2699: real time    0.2804

 eigenvalue-minimisations  :   128
 total energy-change (2. order) :-0.1677230E+00  (-0.1677230E+00)
 number of electron       8.0000000 magnetization 
 augmentation part        8.0000000 magnetization 

 Free energy of the ion-electron system (eV)
  ---------------------------------------------------
  alpha Z        PSCENC =         0.22778709
  Ewald energy   TEWEN  =       125.97669831
  -Hartree energ DENC   =      -243.68624783
  -exchange      EXHF   =         0.00000000
  -V(xc)+E(xc)   XCENC  =        21.88075956
  PAW double counting   =       117.05815612     -117.66307307
  entropy T*S    EENTRO =        -0.00000000
  eigenvalues    EBANDS =      -128.03337917
  atomic energy  EATOM  =       197.04175453
  Solvation  Ediel_sol  =         0.00000000
  ---------------------------------------------------
  free energy    TOTEN  =       -27.19754445 eV

  energy without entropy =      -27.19754445  energy(sigma->0) =      -27.19754445


--------------------------------------------------------------------------------------------------------




--------------------------------------- Iteration      1(   5)  ---------------------------------------


     EDDAV:  cpu time    0.2128: real time    0.2192
       DOS:  cpu time    0.0002: real time    0.0002
    CHARGE:  cpu time    0.0219: real time    0.0224
    MIXING:  cpu time    0.0048: real time    0.0049
    --------------------------------------------
      LOOP:  cpu time    0.2398: real time    0.2468

 eigenvalue-minimisations  :    96
 total energy-change (2. order) :-0.5619874E-04  (-0.5619904E-04)
 number of electron       8.0000001 magnetization 
 augmentation part        0.2168466 magnetization 

 Broyden mixing:
  rms(total) = 0.83003E+00    rms(broyden)= 0.82981E+00
  rms(prec ) = 0.11723E+01
  weight for this iteration     100.00

 Free energy of the ion-electron system (eV)
  ---------------------------------------------------
  alpha Z        PSCENC =         0.22778709
  Ewald energy   TEWEN  =       125.97669831
  -Hartree energ DENC   =      -243.68624783
  -exchange      EXHF   =         0.00000000
  -V(xc)+E(xc)   XCENC  =        21.88075956
  PAW double counting   =       117.05815612     -117.66307307
  entropy T*S    EENTRO =        -0.00000000
  eigenvalues    EBANDS =      -128.03343537
  atomic energy  EATOM  =       197.04175453
  Solvation  Ediel_sol  =         0.00000000
  ---------------------------------------------------
  free energy    TOTEN  =       -27.19760065 eV

  energy without entropy =      -27.19760065  energy(sigma->0) =      -27.19760065


--------------------------------------------------------------------------------------------------------




--------------------------------------- Iteration      1(   6)  ---------------------------------------


    POTLOK:  cpu time    0.1636: real time    0.1696
    SETDIJ:  cpu time    0.0027: real time    0.0028
    EDDIAG:  cpu time    0.0452: real time    0.0585
  RMM-DIIS:  cpu time    0.1678: real time    0.1733
    ORTHCH:  cpu time    0.0027: real time    0.0028
       DOS:  cpu time    0.0002: real time    0.0002
    CHARGE:  cpu time    0.0200: real time    0.0206
    MIXING:  cpu time    0.0056: real time    0.0076
    --------------------------------------------
      LOOP:  cpu time    0.4078: real time    0.4354

 eigenvalue-minimisations  :    64
 total energy-change (2. order) : 0.2631042E+01  (-0.4772227E+00)
 number of electron       8.0000000 magnetization 
 augmentation part        0.1911661 magnetization 

 Broyden mixing:
  rms(total) = 0.41173E+00    rms(broyden)= 0.41163E+00
  rms(prec ) = 0.53064E+00
  weight for this iteration     100.00

 eigenvalues of (default mixing * dielectric matrix)
  average eigenvalue GAMMA=   1.2868
  1.2868

 Free energy of the ion-electron system (eV)
  ---------------------------------------------------
  alpha Z        PSCENC =         0.22778709
  Ewald energy   TEWEN  =       125.97669831
  -Hartree energ DENC   =      -262.49945306
  -exchange      EXHF   =         0.00000000
  -V(xc)+E(xc)   XCENC  =        23.02331385
  PAW double counting   =       230.81987334     -231.58705330
  entropy T*S    EENTRO =        -0.00000000
  eigenvalues    EBANDS =      -107.56947985
  atomic energy  EATOM  =       197.04175453
  Solvation  Ediel_sol  =         0.00000000
  ---------------------------------------------------
  free energy    TOTEN  =       -24.56655909 eV

  energy without entropy =      -24.56655909  energy(sigma->0) =      -24.56655909


--------------------------------------------------------------------------------------------------------




--------------------------------------- Iteration      1(   7)  ---------------------------------------


    POTLOK:  cpu time    0.1549: real time    0.1593
    SETDIJ:  cpu time    0.0028: real time    0.0028
    EDDIAG:  cpu time    0.0388: real time    0.0398
  RMM-DIIS:  cpu time    0.1619: real time    0.1679
    ORTHCH:  cpu time    0.0018: real time    0.0018
       DOS:  cpu time    0.0002: real time    0.0002
    CHARGE:  cpu time    0.0191: real time    0.0196
    MIXING:  cpu time    0.0052: real time    0.0053
    --------------------------------------------
      LOOP:  cpu time    0.3845: real time    0.3967

 eigenvalue-minimisations  :    64
 total energy-change (2. order) : 0.4443277E+00  (-0.9886504E-01)
 number of electron       8.0000000 magnetization 
 augmentation part        0.1816431 magnetization 

 Broyden mixing:
  rms(total) = 0.22109E+00    rms(broyden)= 0.22104E+00
  rms(prec ) = 0.26768E+00
  weight for this iteration     100.00

 eigenvalues of (default mixing * dielectric matrix)
  average eigenvalue GAMMA=   1.8345
  1.4273  2.2417

 Free energy of the ion-electron system (eV)
  ---------------------------------------------------
  alpha Z        PSCENC =         0.22778709
  Ewald energy   TEWEN  =       125.97669831
  -Hartree energ DENC   =      -273.27261619
  -exchange      EXHF   =         0.00000000
  -V(xc)+E(xc)   XCENC  =        23.82262433
  PAW double counting   =       344.37729264     -345.17663458
  entropy T*S    EENTRO =        -0.00000000
  eigenvalues    EBANDS =       -97.11913756
  atomic energy  EATOM  =       197.04175453
  Solvation  Ediel_sol  =         0.00000000
  ---------------------------------------------------
  free energy    TOTEN  =       -24.12223143 eV

  energy without entropy =      -24.12223143  energy(sigma->0) =      -24.12223143


--------------------------------------------------------------------------------------------------------




--------------------------------------- Iteration      1(   8)  ---------------------------------------


    POTLOK:  cpu time    0.1508: real time    0.1542
    SETDIJ:  cpu time    0.0027: real time    0.0028
    EDDIAG:  cpu time    0.0388: real time    0.0395
  RMM-DIIS:  cpu time    0.1622: real time    0.1656
    ORTHCH:  cpu time    0.0020: real time    0.0020
       DOS:  cpu time    0.0002: real time    0.0003
    CHARGE:  cpu time    0.0189: real time    0.0193
    MIXING:  cpu time    0.0052: real time    0.0053
    --------------------------------------------
      LOOP:  cpu time    0.3808: real time    0.3889

 eigenvalue-minimisations  :    64
 total energy-change (2. order) : 0.1421214E+00  (-0.1633419E-01)
 number of electron       8.0000000 magnetization 
 augmentation part        0.1803264 magnetization 

 Broyden mixing:
  rms(total) = 0.23119E-01    rms(broyden)= 0.23094E-01
  rms(prec ) = 0.51661E-01
  weight for this iteration     100.00

 eigenvalues of (default mixing * dielectric matrix)
  average eigenvalue GAMMA=   1.5335
  2.2478  0.9753  1.3774

 Free energy of the ion-electron system (eV)
  ---------------------------------------------------
  alpha Z        PSCENC =         0.22778709
  Ewald energy   TEWEN  =       125.97669831
  -Hartree energ DENC   =      -278.65904084
  -exchange      EXHF   =         0.00000000
  -V(xc)+E(xc)   XCENC  =        24.35608767
  PAW double counting   =       444.03431548     -444.80292776
  entropy T*S    EENTRO =        -0.00000000
  eigenvalues    EBANDS =       -92.15478452
  atomic energy  EATOM  =       197.04175453
  Solvation  Ediel_sol  =         0.00000000
  ---------------------------------------------------
  free energy    TOTEN  =       -23.98011004 eV

  energy without entropy =      -23.98011004  energy(sigma->0) =      -23.98011004


--------------------------------------------------------------------------------------------------------




--------------------------------------- Iteration      1(   9)  ---------------------------------------


    POTLOK:  cpu time    0.1495: real time    0.1534
    SETDIJ:  cpu time    0.0028: real time    0.0028
    EDDIAG:  cpu time    0.0384: real time    0.0391
  RMM-DIIS:  cpu time    0.1627: real time    0.1687
    ORTHCH:  cpu time    0.0017: real time    0.0018
       DOS:  cpu time    0.0002: real time    0.0002
    CHARGE:  cpu time    0.0194: real time    0.0198
    MIXING:  cpu time    0.0060: real time    0.0093
    --------------------------------------------
      LOOP:  cpu time    0.3807: real time    0.3950

 eigenvalue-minimisations  :    64
 total energy-change (2. order) : 0.5496856E-02  (-0.1061967E-02)
 number of electron       8.0000000 magnetization 
 augmentation part        0.1797912 magnetization 

 Broyden mixing:
  rms(total) = 0.18970E-01    rms(broyden)= 0.18966E-01
  rms(prec ) = 0.39213E-01
  weight for this iteration     100.00

 eigenvalues of (default mixing * dielectric matrix)
  average eigenvalue GAMMA=   2.0669
  1.0057  1.3448  2.9585  2.9585

 Free energy of the ion-electron system (eV)
  ---------------------------------------------------
  alpha Z        PSCENC =         0.22778709
  Ewald energy   TEWEN  =       125.97669831
  -Hartree energ DENC   =      -279.87134595
  -exchange      EXHF   =         0.00000000
  -V(xc)+E(xc)   XCENC  =        24.42108387
  PAW double counting   =       446.09102257     -446.86248307
  entropy T*S    EENTRO =        -0.00000000
  eigenvalues    EBANDS =       -90.99913054
  atomic energy  EATOM  =       197.04175453
  Solvation  Ediel_sol  =         0.00000000
  ---------------------------------------------------
  free energy    TOTEN  =       -23.97461318 eV

  energy without entropy =      -23.97461318  energy(sigma->0) =      -23.97461318


--------------------------------------------------------------------------------------------------------




--------------------------------------- Iteration      1(  10)  ---------------------------------------


    POTLOK:  cpu time    0.1432: real time    0.1482
    SETDIJ:  cpu time    0.0028: real time    0.0029
    EDDIAG:  cpu time    0.0384: real time    0.0392
  RMM-DIIS:  cpu time    0.1638: real time    0.1677
    ORTHCH:  cpu time    0.0017: real time    0.0017
       DOS:  cpu time    0.0002: real time    0.0002
    CHARGE:  cpu time    0.0188: real time    0.0192
    MIXING:  cpu time    0.0058: real time    0.0058
    --------------------------------------------
      LOOP:  cpu time    0.3747: real time    0.3850

 eigenvalue-minimisations  :    64
 total energy-change (2. order) : 0.6573075E-02  (-0.2422346E-02)
 number of electron       8.0000000 magnetization 
 augmentation part        0.1787822 magnetization 

 Broyden mixing:
  rms(total) = 0.26432E-01    rms(broyden)= 0.26431E-01
  rms(prec ) = 0.34104E-01
  weight for this iteration     100.00

 eigenvalues of (default mixing * dielectric matrix)
  average eigenvalue GAMMA=   1.7931
  3.0695  2.3685  0.9884  1.2696  1.2696

 Free energy of the ion-electron system (eV)
  ---------------------------------------------------
  alpha Z        PSCENC =         0.22778709
  Ewald energy   TEWEN  =       125.97669831
  -Hartree energ DENC   =      -282.01128652
  -exchange      EXHF   =         0.00000000
  -V(xc)+E(xc)   XCENC  =        24.49132887
  PAW double counting   =       431.69476149     -432.46945367
  entropy T*S    EENTRO =        -0.00000000
  eigenvalues    EBANDS =       -88.91963021
  atomic energy  EATOM  =       197.04175453
  Solvation  Ediel_sol  =         0.00000000
  ---------------------------------------------------
  free energy    TOTEN  =       -23.96804011 eV

  energy without entropy =      -23.96804011  energy(sigma->0) =      -23.96804011


--------------------------------------------------------------------------------------------------------




--------------------------------------- Iteration      1(  11)  ---------------------------------------


    POTLOK:  cpu time    0.1440: real time    0.1479
    SETDIJ:  cpu time    0.0025: real time    0.0026
    EDDIAG:  cpu time    0.0385: real time    0.0394
  RMM-DIIS:  cpu time    0.1593: real time    0.1636
    ORTHCH:  cpu time    0.0017: real time    0.0017
       DOS:  cpu time    0.0002: real time    0.0002
    CHARGE:  cpu time    0.0184: real time    0.0189
    MIXING:  cpu time    0.0060: real time    0.0061
    --------------------------------------------
      LOOP:  cpu time    0.3706: real time    0.3804

 eigenvalue-minimisations  :    64
 total energy-change (2. order) :-0.1167248E-02  (-0.1036979E-02)
 number of electron       8.0000000 magnetization 
 augmentation part        0.1792084 magnetization 

 Broyden mixing:
  rms(total) = 0.11484E-01    rms(broyden)= 0.11480E-01
  rms(prec ) = 0.16837E-01
  weight for this iteration     100.00

 eigenvalues of (default mixing * dielectric matrix)
  average eigenvalue GAMMA=   2.2601
  4.8090  3.0429  2.4208  1.2268  1.0307  1.0307

 Free energy of the ion-electron system (eV)
  ---------------------------------------------------
  alpha Z        PSCENC =         0.22778709
  Ewald energy   TEWEN  =       125.97669831
  -Hartree energ DENC   =      -281.90500972
  -exchange      EXHF   =         0.00000000
  -V(xc)+E(xc)   XCENC  =        24.50627468
  PAW double counting   =       440.42046079     -441.18709345
  entropy T*S    EENTRO =        -0.00000000
  eigenvalues    EBANDS =       -89.05007958
  atomic energy  EATOM  =       197.04175453
  Solvation  Ediel_sol  =         0.00000000
  ---------------------------------------------------
  free energy    TOTEN  =       -23.96920736 eV

  energy without entropy =      -23.96920736  energy(sigma->0) =      -23.96920736


--------------------------------------------------------------------------------------------------------




--------------------------------------- Iteration      1(  12)  ---------------------------------------


    POTLOK:  cpu time    0.1354: real time    0.1403
    SETDIJ:  cpu time    0.0026: real time    0.0026
    EDDIAG:  cpu time    0.0382: real time    0.0390
  RMM-DIIS:  cpu time    0.1615: real time    0.1672
    ORTHCH:  cpu time    0.0018: real time    0.0025
       DOS:  cpu time    0.0002: real time    0.0002
    CHARGE:  cpu time    0.0187: real time    0.0189
    MIXING:  cpu time    0.0061: real time    0.0061
    --------------------------------------------
      LOOP:  cpu time    0.3645: real time    0.3768

 eigenvalue-minimisations  :    64
 total energy-change (2. order) :-0.8637232E-02  (-0.2154957E-03)
 number of electron       8.0000000 magnetization 
 augmentation part        0.1793273 magnetization 

 Broyden mixing:
  rms(total) = 0.10799E-01    rms(broyden)= 0.10798E-01
  rms(prec ) = 0.14311E-01
  weight for this iteration     100.00

 eigenvalues of (default mixing * dielectric matrix)
  average eigenvalue GAMMA=   2.0114
  4.7604  2.9132  2.4090  1.1417  1.0387  1.0387  0.7780

 Free energy of the ion-electron system (eV)
  ---------------------------------------------------
  alpha Z        PSCENC =         0.22778709
  Ewald energy   TEWEN  =       125.97669831
  -Hartree energ DENC   =      -282.15758263
  -exchange      EXHF   =         0.00000000
  -V(xc)+E(xc)   XCENC  =        24.49806148
  PAW double counting   =       436.62195566     -437.38884183
  entropy T*S    EENTRO =        -0.00000000
  eigenvalues    EBANDS =       -88.79767719
  atomic energy  EATOM  =       197.04175453
  Solvation  Ediel_sol  =         0.00000000
  ---------------------------------------------------
  free energy    TOTEN  =       -23.97784459 eV

  energy without entropy =      -23.97784459  energy(sigma->0) =      -23.97784459


--------------------------------------------------------------------------------------------------------




--------------------------------------- Iteration      1(  13)  ---------------------------------------


    POTLOK:  cpu time    0.1377: real time    0.1388
    SETDIJ:  cpu time    0.0026: real time    0.0027
    EDDIAG:  cpu time    0.0387: real time    0.0391
  RMM-DIIS:  cpu time    0.1631: real time    0.1648
    ORTHCH:  cpu time    0.0017: real time    0.0017
       DOS:  cpu time    0.0002: real time    0.0002
    CHARGE:  cpu time    0.0184: real time    0.0186
    MIXING:  cpu time    0.0062: real time    0.0062
    --------------------------------------------
      LOOP:  cpu time    0.3687: real time    0.3722

 eigenvalue-minimisations  :    64
 total energy-change (2. order) :-0.8213330E-03  (-0.1327232E-03)
 number of electron       8.0000000 magnetization 
 augmentation part        0.1790470 magnetization 

 Broyden mixing:
  rms(total) = 0.27225E-02    rms(broyden)= 0.27213E-02
  rms(prec ) = 0.45479E-02
  weight for this iteration     100.00

 eigenvalues of (default mixing * dielectric matrix)
  average eigenvalue GAMMA=   2.4177
  6.0495  4.1797  2.3975  2.3975  1.2144  1.2144  0.9821  0.9063

 Free energy of the ion-electron system (eV)
  ---------------------------------------------------
  alpha Z        PSCENC =         0.22778709
  Ewald energy   TEWEN  =       125.97669831
  -Hartree energ DENC   =      -282.33421198
  -exchange      EXHF   =         0.00000000
  -V(xc)+E(xc)   XCENC  =        24.50228626
  PAW double counting   =       436.37129304     -437.14055659
  entropy T*S    EENTRO =        -0.00000000
  eigenvalues    EBANDS =       -88.62371658
  atomic energy  EATOM  =       197.04175453
  Solvation  Ediel_sol  =         0.00000000
  ---------------------------------------------------
  free energy    TOTEN  =       -23.97866592 eV

  energy without entropy =      -23.97866592  energy(sigma->0) =      -23.97866592


--------------------------------------------------------------------------------------------------------




--------------------------------------- Iteration      1(  14)  ---------------------------------------


    POTLOK:  cpu time    0.1339: real time    0.1358
    SETDIJ:  cpu time    0.0028: real time    0.0028
    EDDIAG:  cpu time    0.0382: real time    0.0386
  RMM-DIIS:  cpu time    0.1645: real time    0.1661
    ORTHCH:  cpu time    0.0019: real time    0.0019
       DOS:  cpu time    0.0002: real time    0.0002
    CHARGE:  cpu time    0.0187: real time    0.0188
    MIXING:  cpu time    0.0064: real time    0.0065
    --------------------------------------------
      LOOP:  cpu time    0.3665: real time    0.3706

 eigenvalue-minimisations  :    64
 total energy-change (2. order) :-0.2840390E-02  (-0.7849688E-04)
 number of electron       8.0000000 magnetization 
 augmentation part        0.1790016 magnetization 

 Broyden mixing:
  rms(total) = 0.14419E-02    rms(broyden)= 0.14405E-02
  rms(prec ) = 0.21186E-02
  weight for this iteration     100.00

 eigenvalues of (default mixing * dielectric matrix)
  average eigenvalue GAMMA=   2.3048
  6.3520  3.8524  2.6390  2.3158  1.1856  1.1856  1.2800  0.9665  0.9665

 Free energy of the ion-electron system (eV)
  ---------------------------------------------------
  alpha Z        PSCENC =         0.22778709
  Ewald energy   TEWEN  =       125.97669831
  -Hartree energ DENC   =      -282.27115660
  -exchange      EXHF   =         0.00000000
  -V(xc)+E(xc)   XCENC  =        24.49042698
  PAW double counting   =       436.00891231     -436.77844613
  entropy T*S    EENTRO =        -0.00000000
  eigenvalues    EBANDS =       -88.67748280
  atomic energy  EATOM  =       197.04175453
  Solvation  Ediel_sol  =         0.00000000
  ---------------------------------------------------
  free energy    TOTEN  =       -23.98150631 eV

  energy without entropy =      -23.98150631  energy(sigma->0) =      -23.98150631


--------------------------------------------------------------------------------------------------------




--------------------------------------- Iteration      1(  15)  ---------------------------------------


    POTLOK:  cpu time    0.1346: real time    0.1384
    SETDIJ:  cpu time    0.0028: real time    0.0028
    EDDIAG:  cpu time    0.0389: real time    0.0393
  RMM-DIIS:  cpu time    0.1626: real time    0.1650
    ORTHCH:  cpu time    0.0017: real time    0.0017
       DOS:  cpu time    0.0002: real time    0.0002
    CHARGE:  cpu time    0.0186: real time    0.0187
    MIXING:  cpu time    0.0068: real time    0.0069
    --------------------------------------------
      LOOP:  cpu time    0.3661: real time    0.3731

 eigenvalue-minimisations  :    64
 total energy-change (2. order) :-0.2541411E-03  (-0.1135755E-04)
 number of electron       8.0000000 magnetization 
 augmentation part        0.1789170 magnetization 

 Broyden mixing:
  rms(total) = 0.23334E-02    rms(broyden)= 0.23330E-02
  rms(prec ) = 0.31454E-02
  weight for this iteration     100.00

 eigenvalues of (default mixing * dielectric matrix)
  average eigenvalue GAMMA=   2.5176
  7.5245  4.7392  2.8853  2.5353  2.2054  1.2250  1.2250  0.9550  0.9550  0.9264

 Free energy of the ion-electron system (eV)
  ---------------------------------------------------
  alpha Z        PSCENC =         0.22778709
  Ewald energy   TEWEN  =       125.97669831
  -Hartree energ DENC   =      -282.34519069
  -exchange      EXHF   =         0.00000000
  -V(xc)+E(xc)   XCENC  =        24.49464148
  PAW double counting   =       436.09988624     -436.86956694
  entropy T*S    EENTRO =        -0.00000000
  eigenvalues    EBANDS =       -88.60777048
  atomic energy  EATOM  =       197.04175453
  Solvation  Ediel_sol  =         0.00000000
  ---------------------------------------------------
  free energy    TOTEN  =       -23.98176045 eV

  energy without entropy =      -23.98176045  energy(sigma->0) =      -23.98176045


--------------------------------------------------------------------------------------------------------




--------------------------------------- Iteration      1(  16)  ---------------------------------------


    POTLOK:  cpu time    0.1356: real time    0.1368
    SETDIJ:  cpu time    0.0027: real time    0.0027
    EDDIAG:  cpu time    0.0384: real time    0.0387
  RMM-DIIS:  cpu time    0.1615: real time    0.1630
    ORTHCH:  cpu time    0.0023: real time    0.0024
       DOS:  cpu time    0.0002: real time    0.0002
    CHARGE:  cpu time    0.0190: real time    0.0192
    MIXING:  cpu time    0.0068: real time    0.0068
    --------------------------------------------
      LOOP:  cpu time    0.3665: real time    0.3699

 eigenvalue-minimisations  :    64
 total energy-change (2. order) :-0.2396869E-03  (-0.1352511E-04)
 number of electron       8.0000000 magnetization 
 augmentation part        0.1789793 magnetization 

 Broyden mixing:
  rms(total) = 0.27439E-03    rms(broyden)= 0.27353E-03
  rms(prec ) = 0.43255E-03
  weight for this iteration     100.00

 eigenvalues of (default mixing * dielectric matrix)
  average eigenvalue GAMMA=   2.5117
  7.7851  4.8481  3.1006  2.4604  2.0858  2.0858  1.2060  1.2060  1.0008  0.9248
  0.9248

 Free energy of the ion-electron system (eV)
  ---------------------------------------------------
  alpha Z        PSCENC =         0.22778709
  Ewald energy   TEWEN  =       125.97669831
  -Hartree energ DENC   =      -282.28175999
  -exchange      EXHF   =         0.00000000
  -V(xc)+E(xc)   XCENC  =        24.49202154
  PAW double counting   =       436.09089097     -436.85990060
  entropy T*S    EENTRO =        -0.00000000
  eigenvalues    EBANDS =       -88.66949199
  atomic energy  EATOM  =       197.04175453
  Solvation  Ediel_sol  =         0.00000000
  ---------------------------------------------------
  free energy    TOTEN  =       -23.98200014 eV

  energy without entropy =      -23.98200014  energy(sigma->0) =      -23.98200014


--------------------------------------------------------------------------------------------------------




--------------------------------------- Iteration      1(  17)  ---------------------------------------


    POTLOK:  cpu time    0.1363: real time    0.1395
    SETDIJ:  cpu time    0.0028: real time    0.0028
    EDDIAG:  cpu time    0.0388: real time    0.0391
  RMM-DIIS:  cpu time    0.1640: real time    0.1679
    ORTHCH:  cpu time    0.0018: real time    0.0018
       DOS:  cpu time    0.0002: real time    0.0002
    CHARGE:  cpu time    0.0187: real time    0.0188
    MIXING:  cpu time    0.0069: real time    0.0070
    --------------------------------------------
      LOOP:  cpu time    0.3695: real time    0.3770

 eigenvalue-minimisations  :    64
 total energy-change (2. order) :-0.4426417E-04  (-0.6831949E-06)
 number of electron       8.0000000 magnetization 
 augmentation part        0.1789733 magnetization 

 Broyden mixing:
  rms(total) = 0.30932E-03    rms(broyden)= 0.30929E-03
  rms(prec ) = 0.41558E-03
  weight for this iteration     100.00

 eigenvalues of (default mixing * dielectric matrix)
  average eigenvalue GAMMA=   2.6007
  8.5993  5.3127  3.9433  2.5325  2.5325  1.7956  1.2591  1.2591  1.1285  0.9757
  0.9351  0.9351

 Free energy of the ion-electron system (eV)
  ---------------------------------------------------
  alpha Z        PSCENC =         0.22778709
  Ewald energy   TEWEN  =       125.97669831
  -Hartree energ DENC   =      -282.30645048
  -exchange      EXHF   =         0.00000000
  -V(xc)+E(xc)   XCENC  =        24.49294492
  PAW double counting   =       436.06696674     -436.83615604
  entropy T*S    EENTRO =        -0.00000000
  eigenvalues    EBANDS =       -88.64558948
  atomic energy  EATOM  =       197.04175453
  Solvation  Ediel_sol  =         0.00000000
  ---------------------------------------------------
  free energy    TOTEN  =       -23.98204440 eV

  energy without entropy =      -23.98204440  energy(sigma->0) =      -23.98204440


--------------------------------------------------------------------------------------------------------




--------------------------------------- Iteration      1(  18)  ---------------------------------------


    POTLOK:  cpu time    0.1422: real time    0.1436
    SETDIJ:  cpu time    0.0027: real time    0.0028
    EDDIAG:  cpu time    0.0394: real time    0.0397
  RMM-DIIS:  cpu time    0.1303: real time    0.1333
    ORTHCH:  cpu time    0.0018: real time    0.0018
       DOS:  cpu time    0.0002: real time    0.0002
    CHARGE:  cpu time    0.0190: real time    0.0191
    MIXING:  cpu time    0.0074: real time    0.0074
    --------------------------------------------
      LOOP:  cpu time    0.3429: real time    0.3480

 eigenvalue-minimisations  :    48
 total energy-change (2. order) :-0.1922320E-04  (-0.1787135E-06)
 number of electron       8.0000000 magnetization 
 augmentation part        0.1789764 magnetization 

 Broyden mixing:
  rms(total) = 0.70722E-04    rms(broyden)= 0.70656E-04
  rms(prec ) = 0.10619E-03
  weight for this iteration     100.00

 eigenvalues of (default mixing * dielectric matrix)
  average eigenvalue GAMMA=   2.5839
  8.6239  5.4817  3.7572  2.8266  2.2979  2.1361  2.1361  1.2172  1.2172  1.0314
  0.9091  0.9780  0.9780

 Free energy of the ion-electron system (eV)
  ---------------------------------------------------
  alpha Z        PSCENC =         0.22778709
  Ewald energy   TEWEN  =       125.97669831
  -Hartree energ DENC   =      -282.29992279
  -exchange      EXHF   =         0.00000000
  -V(xc)+E(xc)   XCENC  =        24.49272952
  PAW double counting   =       436.12175587     -436.89087442
  entropy T*S    EENTRO =        -0.00000000
  eigenvalues    EBANDS =       -88.65199174
  atomic energy  EATOM  =       197.04175453
  Solvation  Ediel_sol  =         0.00000000
  ---------------------------------------------------
  free energy    TOTEN  =       -23.98206363 eV

  energy without entropy =      -23.98206363  energy(sigma->0) =      -23.98206363


--------------------------------------------------------------------------------------------------------




--------------------------------------- Iteration      1(  19)  ---------------------------------------


    POTLOK:  cpu time    0.1429: real time    0.1441
    SETDIJ:  cpu time    0.0028: real time    0.0028
    EDDIAG:  cpu time    0.0381: real time    0.0384
  RMM-DIIS:  cpu time    0.1605: real time    0.1624
    ORTHCH:  cpu time    0.0020: real time    0.0020
       DOS:  cpu time    0.0002: real time    0.0002
    CHARGE:  cpu time    0.0188: real time    0.0189
    MIXING:  cpu time    0.0073: real time    0.0074
    --------------------------------------------
      LOOP:  cpu time    0.3726: real time    0.3763

 eigenvalue-minimisations  :    60
 total energy-change (2. order) :-0.5021210E-05  (-0.3430925E-06)
 number of electron       8.0000000 magnetization 
 augmentation part        0.1789918 magnetization 

 Broyden mixing:
  rms(total) = 0.30926E-03    rms(broyden)= 0.30919E-03
  rms(prec ) = 0.41971E-03
  weight for this iteration     100.00

 eigenvalues of (default mixing * dielectric matrix)
  average eigenvalue GAMMA=   2.5763
  8.7510  5.6392  4.0107  3.5444  2.4621  2.4621  1.9543  1.2362  1.2362  1.0531
  0.9581  0.9581  0.9012  0.9012

 Free energy of the ion-electron system (eV)
  ---------------------------------------------------
  alpha Z        PSCENC =         0.22778709
  Ewald energy   TEWEN  =       125.97669831
  -Hartree energ DENC   =      -282.28910865
  -exchange      EXHF   =         0.00000000
  -V(xc)+E(xc)   XCENC  =        24.49208911
  PAW double counting   =       436.08797258     -436.85701607
  entropy T*S    EENTRO =        -0.00000000
  eigenvalues    EBANDS =       -88.66224555
  atomic energy  EATOM  =       197.04175453
  Solvation  Ediel_sol  =         0.00000000
  ---------------------------------------------------
  free energy    TOTEN  =       -23.98206865 eV

  energy without entropy =      -23.98206865  energy(sigma->0) =      -23.98206865


--------------------------------------------------------------------------------------------------------




--------------------------------------- Iteration      1(  20)  ---------------------------------------


    POTLOK:  cpu time    0.1428: real time    0.1445
    SETDIJ:  cpu time    0.0028: real time    0.0029
    EDDIAG:  cpu time    0.0384: real time    0.0387
  RMM-DIIS:  cpu time    0.1295: real time    0.1323
    ORTHCH:  cpu time    0.0018: real time    0.0018
       DOS:  cpu time    0.0002: real time    0.0002
    --------------------------------------------
      LOOP:  cpu time    0.3155: real time    0.3204

 eigenvalue-minimisations  :    48
 total energy-change (2. order) :-0.5347089E-06  (-0.1106881E-06)
 number of electron       8.0000000 magnetization 
 augmentation part        0.1789918 magnetization 

 Free energy of the ion-electron system (eV)
  ---------------------------------------------------
  alpha Z        PSCENC =         0.22778709
  Ewald energy   TEWEN  =       125.97669831
  -Hartree energ DENC   =      -282.29647547
  -exchange      EXHF   =         0.00000000
  -V(xc)+E(xc)   XCENC  =        24.49240034
  PAW double counting   =       436.09754790     -436.86668005
  entropy T*S    EENTRO =        -0.00000000
  eigenvalues    EBANDS =       -88.65510183
  atomic energy  EATOM  =       197.04175453
  Solvation  Ediel_sol  =         0.00000000
  ---------------------------------------------------
  free energy    TOTEN  =       -23.98206918 eV

  energy without entropy =      -23.98206918  energy(sigma->0) =      -23.98206918


--------------------------------------------------------------------------------------------------------




 average (electrostatic) potential at core
  the test charge radii are     0.5201  0.6991
  (the norm of the test charge is              1.0000)
       1 -41.2590       2 -41.4403       3 -41.3534       4 -41.4101       5 -58.1134
 
 
 
 E-fermi :  -8.1600     XC(G=0):  -0.6731     alpha+bet : -0.1981


 k-point     1 :       0.2500    0.2500    0.2500
  band No.  band energies     occupation 
      1     -16.7185      2.00000
      2      -9.3030      2.00000
      3      -9.1974      2.00000
      4      -9.1088      2.00000
      5      -0.3523      0.00000
      6       0.5130      0.00000
      7       0.6308      0.00000
      8       0.6537      0.00000

 k-point     2 :      -0.2500    0.2500    0.2500
  band No.  band energies     occupation 
      1     -16.7184      2.00000
      2      -9.3030      2.00000
      3      -9.1973      2.00000
      4      -9.1087      2.00000
      5      -0.3598      0.00000
      6       0.5192      0.00000
      7       0.6471      0.00000
      8       0.6838      0.00000

 k-point     3 :       0.2500   -0.2500    0.2500
  band No.  band energies     occupation 
      1     -16.7184      2.00000
      2      -9.3030      2.00000
      3      -9.1973      2.00000
      4      -9.1088      2.00000
      5      -0.3551      0.00000
      6       0.5110      0.00000
      7       0.6326      0.00000
      8       0.6728      0.00000

 k-point     4 :      -0.2500   -0.2500    0.2500
  band No.  band energies     occupation 
      1     -16.7185      2.00000
      2      -9.3031      2.00000
      3      -9.1973      2.00000
      4      -9.1087      2.00000
      5      -0.3532      0.00000
      6       0.5109      0.00000
      7       0.6334      0.00000
      8       0.6597      0.00000


--------------------------------------------------------------------------------------------------------


 soft charge-density along one line, spin component           1
         0         1         2         3         4         5         6         7         8         9
 total charge-density along one line
 
 pseudopotential strength for first ion, spin component:           1
 -2.339  -4.030  -0.001  -0.001   0.001
 -4.030  -6.858  -0.003  -0.004   0.002
 -0.001  -0.003  -0.339   0.002  -0.001
 -0.001  -0.004   0.002  -0.338  -0.001
  0.001   0.002  -0.001  -0.001  -0.340
 total augmentation occupancy for first ion, spin component:           1
  3.383  -0.612   0.211   0.294  -0.131
 -0.612   0.123  -0.039  -0.055   0.024
  0.211  -0.039   0.018   0.016  -0.007
  0.294  -0.055   0.016   0.029  -0.010
 -0.131   0.024  -0.007  -0.010   0.011


------------------------ aborting loop because EDIFF is reached ----------------------------------------


    CHARGE:  cpu time    0.0184: real time    0.0187
    FORLOC:  cpu time    0.0146: real time    0.0148
    FORNL :  cpu time    0.0221: real time    0.0225
    STRESS:  cpu time    0.1642: real time    0.1676
    FORCOR:  cpu time    0.1448: real time    0.1476
    FORHAR:  cpu time    0.0445: real time    0.0452
    MIXING:  cpu time    0.0068: real time    0.0069
    OFIELD:  cpu time    0.0000: real time    0.0000

  FORCE on cell =-STRESS in cart. coord.  units (eV):
  Direction    XX          YY          ZZ          XY          YZ          ZX
  --------------------------------------------------------------------------------------
  Alpha Z     0.22779     0.22779     0.22779
  Ewald      43.19748    41.71731    41.06185    -2.47468    -0.19935    -0.67358
  Hartree    95.55404    93.37327    93.37450    -0.98472     0.30634    -0.51063
  E(xc)     -26.94977   -26.93466   -26.93939    -0.01224     0.00243    -0.00552
  Local    -197.74429  -194.06026  -193.57696     3.12434    -0.33788     1.22195
  n-local   -15.38493   -15.32374   -15.29748    -0.01936     0.04253    -0.03017
  augment     0.12569     0.12636     0.12785     0.00208     0.00216    -0.00071
  Kinetic   100.00920    99.23454    99.37635     0.62772    -0.15601     0.28968
  Fock        0.00000     0.00000     0.00000     0.00000     0.00000     0.00000
  -------------------------------------------------------------------------------------
  Total      -0.96479    -1.63938    -1.64549     0.26315    -0.33978     0.29102
  in kB      -1.45348    -2.46976    -2.47896     0.39644    -0.51189     0.43843
  external pressure =       -2.13 kB  Pullay stress =        0.00 kB

  kinetic pressure (ideal gas correction) =      0.00 kB
  total pressure  =     -2.13 kB
  Total+kin.    -1.453      -2.470      -2.479       0.396      -0.512       0.438

 VOLUME and BASIS-vectors are now :
 -----------------------------------------------------------------------------
  energy-cutoff  :      400.00
  volume of cell :     1063.50
      direct lattice vectors                 reciprocal lattice vectors
    10.051640416  0.000000000  0.000000000     0.099486249  0.002890826  0.001783640
    -0.299185496 10.296309107  0.000000000     0.000000000  0.097122181 -0.001249514
    -0.188072079  0.132202716 10.275845841     0.000000000  0.000000000  0.097315590

  length of vectors
    10.051640416 10.300654988 10.278417019     0.099544221  0.097130219  0.097315590


 FORCES acting on ions
    electron-ion (+dipol)            ewald-force                    non-local-force                 convergence-correction
 -----------------------------------------------------------------------------------------------
   -.171E+02 0.278E+02 0.387E+02   0.183E+02 -.298E+02 -.415E+02   -.168E+01 0.271E+01 0.377E+01   0.153E-03 -.259E-03 -.385E-03
   0.514E+02 -.662E+01 0.341E+01   -.564E+02 0.712E+01 -.379E+01   0.529E+01 -.734E+00 0.330E+00   -.467E-03 0.826E-04 -.239E-04
   -.213E+02 -.469E+02 0.121E+01   0.233E+02 0.509E+02 -.132E+01   -.210E+01 -.474E+01 0.115E+00   0.175E-03 0.452E-03 -.351E-05
   -.115E+02 0.234E+02 -.447E+02   0.126E+02 -.255E+02 0.488E+02   -.116E+01 0.237E+01 -.456E+01   0.933E-04 -.203E-03 0.441E-03
   -.191E+01 0.252E+01 0.190E+01   0.218E+01 -.274E+01 -.217E+01   0.782E-01 0.188E+00 -.128E+00   -.943E-04 0.180E-03 0.569E-04
 -----------------------------------------------------------------------------------------------
   -.423E+00 0.209E+00 0.474E+00   -.355E-14 0.000E+00 0.000E+00   0.423E+00 -.209E+00 -.474E+00   -.140E-03 0.253E-03 0.862E-04
 
 
 POSITION                                       TOTAL-FORCE (eV/Angst)
 -----------------------------------------------------------------------------------
      5.22159      4.23521      3.70561        -0.462072      0.698688      0.936237
      3.73949      5.00407      4.50532         0.317326     -0.227698     -0.049131
      5.29705      5.88010      4.55145        -0.112720     -0.678210      0.001760
      5.08243      4.35944      5.54111        -0.091762      0.240381     -0.493477
      4.83598      4.86012      4.57657         0.348792     -0.033456     -0.395507
 -----------------------------------------------------------------------------------
    total drift:                               -0.000436     -0.000295     -0.000118


--------------------------------------------------------------------------------------------------------



  FREE ENERGIE OF THE ION-ELECTRON SYSTEM (eV)
  ---------------------------------------------------
  free  energy   TOTEN  =       -23.98206918 eV

  energy  without entropy=      -23.98206918  energy(sigma->0) =      -23.98206918
 


--------------------------------------------------------------------------------------------------------


    POTLOK:  cpu time    0.1448: real time    0.1482


--------------------------------------------------------------------------------------------------------


 stress matrix after NEB project (eV)
     -0.96479      0.26315      0.29102
      0.26315     -1.63938     -0.33978
      0.29102     -0.33978     -1.64549
  FORCES: max atom, RMS     1.256270    0.747633
  FORCE total and by dimension    1.671757    0.936237
  Stress total and by dimension    2.620081    1.645489
           RANDOM_SEED =         581385115                0                0
           RANDOM_SEED =         581385115               30                0
   IONSTEP:  cpu time    0.0037: real time    0.0070

  ENERGY OF THE ELECTRON-ION-THERMOSTAT SYSTEM (eV)
  ---------------------------------------------------
% ion-electron   TOTEN  =       -23.982069  see above
  kinetic energy EKIN   =         0.000760
  kin. lattice  EKIN_LAT=         0.000000  (temperature    1.47 K)
  nose potential ES     =         0.000000
  nose kinetic   EPS    =         0.000000
  ---------------------------------------------------
  total energy   ETOTAL =       -23.981309 eV

  maximum distance moved by ions :      0.29E-03

    WAVPRE:  cpu time    0.0438: real time    0.0443
    FEWALD:  cpu time    0.0009: real time    0.0009
    ORTHCH:  cpu time    0.0093: real time    0.0094
     LOOP+:  cpu time    7.3886: real time    7.6030


--------------------------------------- Iteration      2(   1)  ---------------------------------------


    POTLOK:  cpu time    0.1457: real time    0.1468
    SETDIJ:  cpu time    0.0029: real time    0.0029
     EDDAV:  cpu time    0.2645: real time    0.2676
       DOS:  cpu time    0.0002: real time    0.0002
    CHARGE:  cpu time    0.0184: real time    0.0186
    MIXING:  cpu time    0.0075: real time    0.0076
    --------------------------------------------
      LOOP:  cpu time    0.4392: real time    0.4437

 eigenvalue-minimisations  :    88
 total energy-change (2. order) :-0.5971989E-02  (-0.6736053E-03)
 number of electron       8.0000001 magnetization 
 augmentation part        0.1795717 magnetization 

 Broyden mixing:
  rms(total) = 0.44001E-02    rms(broyden)= 0.43980E-02
  rms(prec ) = 0.58438E-02
  weight for this iteration     100.00

 Free energy of the ion-electron system (eV)
  ---------------------------------------------------
  alpha Z        PSCENC =         0.22778709
  Ewald energy   TEWEN  =       126.35286394
  -Hartree energ DENC   =      -282.52256082
  -exchange      EXHF   =         0.00000000
  -V(xc)+E(xc)   XCENC  =        24.50376500
  PAW double counting   =       436.09231558     -436.86145673
  entropy T*S    EENTRO =        -0.00000000
  eigenvalues    EBANDS =       -88.82250923
  atomic energy  EATOM  =       197.04175453
  Solvation  Ediel_sol  =         0.00000000
  ---------------------------------------------------
  free energy    TOTEN  =       -23.98804064 eV

  energy without entropy =      -23.98804064  energy(sigma->0) =      -23.98804064


--------------------------------------------------------------------------------------------------------




--------------------------------------- Iteration      2(   2)  ---------------------------------------


    POTLOK:  cpu time    0.1528: real time    0.1539
    SETDIJ:  cpu time    0.0028: real time    0.0028
    EDDIAG:  cpu time    0.0394: real time    0.0397
  RMM-DIIS:  cpu time    0.1672: real time    0.1687
    ORTHCH:  cpu time    0.0017: real time    0.0017
       DOS:  cpu time    0.0003: real time    0.0003
    CHARGE:  cpu time    0.0188: real time    0.0189
    MIXING:  cpu time    0.0054: real time    0.0054
    --------------------------------------------
      LOOP:  cpu time    0.3883: real time    0.3914

 eigenvalue-minimisations  :    64
 total energy-change (2. order) : 0.5845966E-04  (-0.1862453E-04)
 number of electron       8.0000001 magnetization 
 augmentation part        0.1794866 magnetization 

 Broyden mixing:
  rms(total) = 0.18379E-02    rms(broyden)= 0.18376E-02
  rms(prec ) = 0.22624E-02
  weight for this iteration     100.00

 eigenvalues of (default mixing * dielectric matrix)
  average eigenvalue GAMMA=   1.5461
  1.5461

 Free energy of the ion-electron system (eV)
  ---------------------------------------------------
  alpha Z        PSCENC =         0.22778709
  Ewald energy   TEWEN  =       126.35286394
  -Hartree energ DENC   =      -282.60110405
  -exchange      EXHF   =         0.00000000
  -V(xc)+E(xc)   XCENC  =        24.50794474
  PAW double counting   =       437.00022189     -437.77026786
  entropy T*S    EENTRO =        -0.00000000
  eigenvalues    EBANDS =       -88.74718247
  atomic energy  EATOM  =       197.04175453
  Solvation  Ediel_sol  =         0.00000000
  ---------------------------------------------------
  free energy    TOTEN  =       -23.98798218 eV

  energy without entropy =      -23.98798218  energy(sigma->0) =      -23.98798218


--------------------------------------------------------------------------------------------------------




--------------------------------------- Iteration      2(   3)  ---------------------------------------


    POTLOK:  cpu time    0.1516: real time    0.1528
    SETDIJ:  cpu time    0.0027: real time    0.0027
    EDDIAG:  cpu time    0.0395: real time    0.0398
  RMM-DIIS:  cpu time    0.1677: real time    0.1695
    ORTHCH:  cpu time    0.0021: real time    0.0021
       DOS:  cpu time    0.0002: real time    0.0002
    CHARGE:  cpu time    0.0191: real time    0.0193
    MIXING:  cpu time    0.0054: real time    0.0054
    --------------------------------------------
      LOOP:  cpu time    0.3882: real time    0.3918

 eigenvalue-minimisations  :    64
 total energy-change (2. order) : 0.3311118E-06  (-0.8111108E-05)
 number of electron       8.0000001 magnetization 
 augmentation part        0.1794210 magnetization 

 Broyden mixing:
  rms(total) = 0.85344E-03    rms(broyden)= 0.85283E-03
  rms(prec ) = 0.96590E-03
  weight for this iteration     100.00

 eigenvalues of (default mixing * dielectric matrix)
  average eigenvalue GAMMA=   1.8053
  1.8053  1.8053

 Free energy of the ion-electron system (eV)
  ---------------------------------------------------
  alpha Z        PSCENC =         0.22778709
  Ewald energy   TEWEN  =       126.35286394
  -Hartree energ DENC   =      -282.64061178
  -exchange      EXHF   =         0.00000000
  -V(xc)+E(xc)   XCENC  =        24.51020759
  PAW double counting   =       437.71350615     -438.48403135
  entropy T*S    EENTRO =        -0.00000000
  eigenvalues    EBANDS =       -88.70945801
  atomic energy  EATOM  =       197.04175453
  Solvation  Ediel_sol  =         0.00000000
  ---------------------------------------------------
  free energy    TOTEN  =       -23.98798184 eV

  energy without entropy =      -23.98798184  energy(sigma->0) =      -23.98798184


--------------------------------------------------------------------------------------------------------




--------------------------------------- Iteration      2(   4)  ---------------------------------------


    POTLOK:  cpu time    0.1503: real time    0.1540
    SETDIJ:  cpu time    0.0027: real time    0.0027
    EDDIAG:  cpu time    0.0389: real time    0.0392
  RMM-DIIS:  cpu time    0.1690: real time    0.1704
    ORTHCH:  cpu time    0.0016: real time    0.0022
       DOS:  cpu time    0.0002: real time    0.0002
    --------------------------------------------
      LOOP:  cpu time    0.3628: real time    0.3688

 eigenvalue-minimisations  :    64
 total energy-change (2. order) :-0.5222371E-06  (-0.5897436E-06)
 number of electron       8.0000001 magnetization 
 augmentation part        0.1794210 magnetization 

 Free energy of the ion-electron system (eV)
  ---------------------------------------------------
  alpha Z        PSCENC =         0.22778709
  Ewald energy   TEWEN  =       126.35286394
  -Hartree energ DENC   =      -282.62514126
  -exchange      EXHF   =         0.00000000
  -V(xc)+E(xc)   XCENC  =        24.50971394
  PAW double counting   =       438.01962715     -438.78993753
  entropy T*S    EENTRO =        -0.00000000
  eigenvalues    EBANDS =       -88.72465023
  atomic energy  EATOM  =       197.04175453
  Solvation  Ediel_sol  =         0.00000000
  ---------------------------------------------------
  free energy    TOTEN  =       -23.98798237 eV

  energy without entropy =      -23.98798237  energy(sigma->0) =      -23.98798237


--------------------------------------------------------------------------------------------------------




 average (electrostatic) potential at core
  the test charge radii are     0.5201  0.6991
  (the norm of the test charge is              1.0000)
       1 -41.2762       2 -41.4439       3 -41.3629       4 -41.4171       5 -58.1051
 
 
 
 E-fermi :  -8.1732     XC(G=0):  -0.6927     alpha+bet : -0.1981


 k-point     1 :       0.2500    0.2500    0.2500
  band No.  band energies     occupation 
      1     -16.7315      2.00000
      2      -9.3076      2.00000
      3      -9.2069      2.00000
      4      -9.1164      2.00000
      5      -0.3553      0.00000
      6       0.4964      0.00000
      7       0.6190      0.00000
      8       0.6414      0.00000

 k-point     2 :      -0.2500    0.2500    0.2500
  band No.  band energies     occupation 
      1     -16.7315      2.00000
      2      -9.3077      2.00000
      3      -9.2068      2.00000
      4      -9.1163      2.00000
      5      -0.3632      0.00000
      6       0.5046      0.00000
      7       0.6358      0.00000
      8       0.6703      0.00000

 k-point     3 :       0.2500   -0.2500    0.2500
  band No.  band energies     occupation 
      1     -16.7314      2.00000
      2      -9.3076      2.00000
      3      -9.2068      2.00000
      4      -9.1164      2.00000
      5      -0.3584      0.00000
      6       0.4964      0.00000
      7       0.6207      0.00000
      8       0.6589      0.00000

 k-point     4 :      -0.2500   -0.2500    0.2500
  band No.  band energies     occupation 
      1     -16.7315      2.00000
      2      -9.3077      2.00000
      3      -9.2068      2.00000
      4      -9.1163      2.00000
      5      -0.3564      0.00000
      6       0.4956      0.00000
      7       0.6213      0.00000
      8       0.6466      0.00000


--------------------------------------------------------------------------------------------------------


 soft charge-density along one line, spin component           1
         0         1         2         3         4         5         6         7         8         9
 total charge-density along one line
 
 pseudopotential strength for first ion, spin component:           1
 -2.339  -4.031  -0.001  -0.001   0.001
 -4.031  -6.859  -0.003  -0.004   0.002
 -0.001  -0.003  -0.339   0.002  -0.001
 -0.001  -0.004   0.002  -0.338  -0.001
  0.001   0.002  -0.001  -0.001  -0.340
 total augmentation occupancy for first ion, spin component:           1
  3.395  -0.614   0.213   0.297  -0.132
 -0.614   0.124  -0.040  -0.055   0.024
  0.213  -0.040   0.019   0.016  -0.007
  0.297  -0.055   0.016   0.029  -0.010
 -0.132   0.024  -0.007  -0.010   0.012


------------------------ aborting loop because EDIFF is reached ----------------------------------------


    CHARGE:  cpu time    0.0191: real time    0.0193
    FORLOC:  cpu time    0.0146: real time    0.0147
    FORNL :  cpu time    0.0222: real time    0.0223
    STRESS:  cpu time    0.1654: real time    0.1664
    FORCOR:  cpu time    0.1489: real time    0.1501
    FORHAR:  cpu time    0.0485: real time    0.0488
    MIXING:  cpu time    0.0065: real time    0.0066
    OFIELD:  cpu time    0.0000: real time    0.0000

  FORCE on cell =-STRESS in cart. coord.  units (eV):
  Direction    XX          YY          ZZ          XY          YZ          ZX
  --------------------------------------------------------------------------------------
  Alpha Z     0.22779     0.22779     0.22779
  Ewald      43.30624    41.83320    41.21338    -2.44506    -0.16292    -0.68575
  Hartree    95.68333    93.47542    93.48238    -0.97264     0.29918    -0.50207
  E(xc)     -26.96807   -26.95342   -26.95804    -0.01199     0.00230    -0.00535
  Local    -197.97995  -194.25610  -193.80588     3.08493    -0.35019     1.21580
  n-local   -15.42161   -15.36431   -15.33905    -0.01866     0.03997    -0.02839
  augment     0.12514     0.12560     0.12705     0.00208     0.00203    -0.00063
  Kinetic   100.10897    99.35687    99.49514     0.61555    -0.14873     0.28121
  Fock        0.00000     0.00000     0.00000     0.00000     0.00000     0.00000
  -------------------------------------------------------------------------------------
  Total      -0.91817    -1.55495    -1.55724     0.25420    -0.31836     0.27483
  in kB      -1.38324    -2.34256    -2.34601     0.38295    -0.47962     0.41403
  external pressure =       -2.02 kB  Pullay stress =        0.00 kB

  kinetic pressure (ideal gas correction) =      0.00 kB
  total pressure  =     -2.02 kB
  Total+kin.    -1.382      -2.339      -2.342       0.382      -0.478       0.413

 VOLUME and BASIS-vectors are now :
 -----------------------------------------------------------------------------
  energy-cutoff  :      400.00
  volume of cell :     1063.50
      direct lattice vectors                 reciprocal lattice vectors
    10.051640416  0.000000000  0.000000000     0.099486249  0.002890826  0.001783640
    -0.299185496 10.296309107  0.000000000     0.000000000  0.097122181 -0.001249514
    -0.188072079  0.132202716 10.275845841     0.000000000  0.000000000  0.097315590

  length of vectors
    10.051640416 10.300654988 10.278417019     0.099544221  0.097130219  0.097315590


 FORCES acting on ions
    electron-ion (+dipol)            ewald-force                    non-local-force                 convergence-correction
 -----------------------------------------------------------------------------------------------
   -.172E+02 0.279E+02 0.388E+02   0.184E+02 -.300E+02 -.417E+02   -.169E+01 0.273E+01 0.380E+01   0.666E-03 -.988E-03 -.139E-02
   0.515E+02 -.660E+01 0.342E+01   -.565E+02 0.712E+01 -.380E+01   0.530E+01 -.732E+00 0.332E+00   -.136E-02 0.160E-03 -.183E-03
   -.214E+02 -.470E+02 0.121E+01   0.234E+02 0.511E+02 -.132E+01   -.211E+01 -.476E+01 0.116E+00   0.708E-03 0.137E-02 -.131E-03
   -.115E+02 0.234E+02 -.448E+02   0.126E+02 -.255E+02 0.489E+02   -.116E+01 0.237E+01 -.458E+01   0.423E-03 -.741E-03 0.122E-02
   -.182E+01 0.245E+01 0.181E+01   0.208E+01 -.267E+01 -.206E+01   0.643E-01 0.192E+00 -.113E+00   -.205E-04 0.288E-04 0.242E-04
 -----------------------------------------------------------------------------------------------
[...]
      5.29447      5.84113      4.55138         0.276454      0.439199     -0.010124
      5.07788      4.37262      5.51352         0.095501     -0.190943      0.346553
      4.83737      4.86040      4.57488        -0.455235      0.369104      0.488488
 -----------------------------------------------------------------------------------
    total drift:                               -0.000029     -0.000052     -0.000390


--------------------------------------------------------------------------------------------------------



  FREE ENERGIE OF THE ION-ELECTRON SYSTEM (eV)
  ---------------------------------------------------
  free  energy   TOTEN  =       -24.00674257 eV

  energy  without entropy=      -24.00674257  energy(sigma->0) =      -24.00674257
 
 d Force =-0.1137039E-01[-0.139E-01,-0.886E-02]  d Energy =-0.1134968E-01-0.207E-04
 d Force =-0.1244071E+01[-0.125E+01,-0.124E+01]  d Ewald  =-0.1244048E+01-0.227E-04


--------------------------------------------------------------------------------------------------------


    POTLOK:  cpu time    0.1441: real time    0.1486


--------------------------------------------------------------------------------------------------------


 stress matrix after NEB project (eV)
      0.13208      0.00389     -0.16270
      0.00389      0.45161      0.27577
     -0.16270      0.27577      0.57232
  FORCES: max atom, RMS     1.025911    0.652946
  FORCE total and by dimension    1.460032    0.789439
  Stress total and by dimension    0.868341    0.572317
           RANDOM_SEED =         581385115               30                0
   IONSTEP:  cpu time    0.0002: real time    0.0002

  ENERGY OF THE ELECTRON-ION-THERMOSTAT SYSTEM (eV)
  ---------------------------------------------------
% ion-electron   TOTEN  =       -24.006743  see above
  kinetic energy EKIN   =         0.024989
  kin. lattice  EKIN_LAT=         0.000000  (temperature   48.33 K)
  nose potential ES     =         0.000000
  nose kinetic   EPS    =         0.000000
  ---------------------------------------------------
  total energy   ETOTAL =       -23.981754 eV

  maximum distance moved by ions :      0.66E-03

    WAVPRE:  cpu time    0.0506: real time    0.0516
    FEWALD:  cpu time    0.0008: real time    0.0009
    ORTHCH:  cpu time    0.0093: real time    0.0095
 Prediction of Wavefunctions ALPHA= 2.242 BETA=-1.282
     LOOP+:  cpu time    2.1111: real time    2.1639


--------------------------------------- Iteration     10(   1)  ---------------------------------------


    POTLOK:  cpu time    0.1447: real time    0.1478
    SETDIJ:  cpu time    0.0025: real time    0.0025
     EDDAV:  cpu time    0.1578: real time    0.1612
       DOS:  cpu time    0.0003: real time    0.0003
    CHARGE:  cpu time    0.0179: real time    0.0183
    MIXING:  cpu time    0.0052: real time    0.0052
    --------------------------------------------
      LOOP:  cpu time    0.3283: real time    0.3354

 eigenvalue-minimisations  :    64
 total energy-change (2. order) : 0.1145446E-01  (-0.8122451E-04)
 number of electron       8.0000001 magnetization 
 augmentation part        0.1908237 magnetization 

 Broyden mixing:
  rms(total) = 0.45111E-03    rms(broyden)= 0.44980E-03
  rms(prec ) = 0.48801E-03
  weight for this iteration     100.00

 Free energy of the ion-electron system (eV)
  ---------------------------------------------------
  alpha Z        PSCENC =         0.22778709
  Ewald energy   TEWEN  =       135.98454672
  -Hartree energ DENC   =      -291.10412128
  -exchange      EXHF   =         0.00000000
  -V(xc)+E(xc)   XCENC  =        24.95799414
  PAW double counting   =       496.21401019     -497.01830038
  entropy T*S    EENTRO =        -0.00000000
  eigenvalues    EBANDS =       -90.29895843
  atomic energy  EATOM  =       197.04175453
  Solvation  Ediel_sol  =         0.00000000
  ---------------------------------------------------
  free energy    TOTEN  =       -23.99528742 eV

  energy without entropy =      -23.99528742  energy(sigma->0) =      -23.99528742


--------------------------------------------------------------------------------------------------------




--------------------------------------- Iteration     10(   2)  ---------------------------------------


    POTLOK:  cpu time    0.1399: real time    0.1449
    SETDIJ:  cpu time    0.0031: real time    0.0032
    EDDIAG:  cpu time    0.0389: real time    0.0397
  RMM-DIIS:  cpu time    0.1641: real time    0.1692
    ORTHCH:  cpu time    0.0021: real time    0.0022
       DOS:  cpu time    0.0002: real time    0.0003
    CHARGE:  cpu time    0.0184: real time    0.0187
    MIXING:  cpu time    0.0054: real time    0.0054
    --------------------------------------------
      LOOP:  cpu time    0.3722: real time    0.3836

 eigenvalue-minimisations  :    64
 total energy-change (2. order) :-0.1800097E-05  (-0.1932276E-05)
 number of electron       8.0000001 magnetization 
 augmentation part        0.1908433 magnetization 

 Broyden mixing:
  rms(total) = 0.20804E-03    rms(broyden)= 0.20703E-03
  rms(prec ) = 0.22060E-03
  weight for this iteration     100.00

 eigenvalues of (default mixing * dielectric matrix)
  average eigenvalue GAMMA=   0.7705
  0.7705

 Free energy of the ion-electron system (eV)
  ---------------------------------------------------
  alpha Z        PSCENC =         0.22778709
  Ewald energy   TEWEN  =       135.98454672
  -Hartree energ DENC   =      -291.10112571
  -exchange      EXHF   =         0.00000000
  -V(xc)+E(xc)   XCENC  =        24.95780843
  PAW double counting   =       496.25890061     -497.06311176
  entropy T*S    EENTRO =        -0.00000000
  eigenvalues    EBANDS =       -90.30184914
  atomic energy  EATOM  =       197.04175453
  Solvation  Ediel_sol  =         0.00000000
  ---------------------------------------------------
  free energy    TOTEN  =       -23.99528922 eV

  energy without entropy =      -23.99528922  energy(sigma->0) =      -23.99528922


--------------------------------------------------------------------------------------------------------




--------------------------------------- Iteration     10(   3)  ---------------------------------------


    POTLOK:  cpu time    0.1428: real time    0.1454
    SETDIJ:  cpu time    0.0028: real time    0.0028
    EDDIAG:  cpu time    0.0375: real time    0.0382
  RMM-DIIS:  cpu time    0.1308: real time    0.1352
    ORTHCH:  cpu time    0.0017: real time    0.0026
       DOS:  cpu time    0.0002: real time    0.0002
    CHARGE:  cpu time    0.0186: real time    0.0190
    MIXING:  cpu time    0.0053: real time    0.0054
    --------------------------------------------
      LOOP:  cpu time    0.3398: real time    0.3489

 eigenvalue-minimisations  :    48
 total energy-change (2. order) :-0.1263072E-06  (-0.3721498E-07)
 number of electron       8.0000001 magnetization 
 augmentation part        0.1908449 magnetization 

 Broyden mixing:
  rms(total) = 0.15973E-03    rms(broyden)= 0.15964E-03
  rms(prec ) = 0.16803E-03
  weight for this iteration     100.00

 eigenvalues of (default mixing * dielectric matrix)
  average eigenvalue GAMMA=   1.5887
  1.1483  2.0290

 Free energy of the ion-electron system (eV)
  ---------------------------------------------------
  alpha Z        PSCENC =         0.22778709
  Ewald energy   TEWEN  =       135.98454672
  -Hartree energ DENC   =      -291.10109850
  -exchange      EXHF   =         0.00000000
  -V(xc)+E(xc)   XCENC  =        24.95782533
  PAW double counting   =       496.22220342     -497.02640892
  entropy T*S    EENTRO =        -0.00000000
  eigenvalues    EBANDS =       -90.30189902
  atomic energy  EATOM  =       197.04175453
  Solvation  Ediel_sol  =         0.00000000
  ---------------------------------------------------
  free energy    TOTEN  =       -23.99528935 eV

  energy without entropy =      -23.99528935  energy(sigma->0) =      -23.99528935


--------------------------------------------------------------------------------------------------------




--------------------------------------- Iteration     10(   4)  ---------------------------------------


    POTLOK:  cpu time    0.1436: real time    0.1462
    SETDIJ:  cpu time    0.0028: real time    0.0028
    EDDIAG:  cpu time    0.0376: real time    0.0383
  RMM-DIIS:  cpu time    0.1250: real time    0.1292
    ORTHCH:  cpu time    0.0017: real time    0.0017
       DOS:  cpu time    0.0002: real time    0.0002
    --------------------------------------------
      LOOP:  cpu time    0.3108: real time    0.3184

 eigenvalue-minimisations  :    40
 total energy-change (2. order) :-0.2730775E-06  (-0.9918071E-08)
 number of electron       8.0000001 magnetization 
 augmentation part        0.1908449 magnetization 

 Free energy of the ion-electron system (eV)
  ---------------------------------------------------
  alpha Z        PSCENC =         0.22778709
  Ewald energy   TEWEN  =       135.98454672
  -Hartree energ DENC   =      -291.10169938
  -exchange      EXHF   =         0.00000000
  -V(xc)+E(xc)   XCENC  =        24.95789204
  PAW double counting   =       496.13525390     -496.93945875
  entropy T*S    EENTRO =        -0.00000000
  eigenvalues    EBANDS =       -90.30136578
  atomic energy  EATOM  =       197.04175453
  Solvation  Ediel_sol  =         0.00000000
  ---------------------------------------------------
  free energy    TOTEN  =       -23.99528962 eV

  energy without entropy =      -23.99528962  energy(sigma->0) =      -23.99528962


--------------------------------------------------------------------------------------------------------




 average (electrostatic) potential at core
  the test charge radii are     0.5201  0.6991
  (the norm of the test charge is              1.0000)
       1 -41.7887       2 -41.5312       3 -41.6126       4 -41.5917       5 -57.8515
 
 
 
 E-fermi :  -8.3151     XC(G=0):  -0.6457     alpha+bet : -0.1981


 k-point     1 :       0.2500    0.2500    0.2500
  band No.  band energies     occupation 
      1     -17.0404      2.00000
      2      -9.4603      2.00000
      3      -9.3555      2.00000
      4      -9.2945      2.00000
      5      -0.2891      0.00000
      6       0.5501      0.00000
      7       0.6558      0.00000
      8       0.6733      0.00000

 k-point     2 :      -0.2500    0.2500    0.2500
  band No.  band energies     occupation 
      1     -17.0404      2.00000
      2      -9.4603      2.00000
      3      -9.3555      2.00000
      4      -9.2944      2.00000
      5      -0.2981      0.00000
      6       0.5662      0.00000
      7       0.6715      0.00000
      8       0.7000      0.00000

 k-point     3 :       0.2500   -0.2500    0.2500
  band No.  band energies     occupation 
      1     -17.0404      2.00000
      2      -9.4603      2.00000
      3      -9.3555      2.00000
      4      -9.2944      2.00000
      5      -0.2920      0.00000
      6       0.5496      0.00000
      7       0.6574      0.00000
      8       0.6893      0.00000

 k-point     4 :      -0.2500   -0.2500    0.2500
  band No.  band energies     occupation 
      1     -17.0405      2.00000
      2      -9.4603      2.00000
      3      -9.3556      2.00000
      4      -9.2944      2.00000
      5      -0.2901      0.00000
      6       0.5483      0.00000
      7       0.6594      0.00000
      8       0.6774      0.00000


--------------------------------------------------------------------------------------------------------


 soft charge-density along one line, spin component           1
         0         1         2         3         4         5         6         7         8         9
 total charge-density along one line
 
 pseudopotential strength for first ion, spin component:           1
 -2.343  -4.039  -0.001  -0.001   0.001
 -4.039  -6.874  -0.003  -0.005   0.002
 -0.001  -0.003  -0.335   0.002  -0.001
 -0.001  -0.005   0.002  -0.333  -0.002
  0.001   0.002  -0.001  -0.002  -0.336
 total augmentation occupancy for first ion, spin component:           1
  3.674  -0.654   0.261   0.364  -0.159
 -0.654   0.132  -0.047  -0.066   0.029
  0.261  -0.047   0.026   0.021  -0.009
  0.364  -0.066   0.021   0.041  -0.013
 -0.159   0.029  -0.009  -0.013   0.017


------------------------ aborting loop because EDIFF is reached ----------------------------------------


    CHARGE:  cpu time    0.0182: real time    0.0186
    FORLOC:  cpu time    0.0153: real time    0.0159
    FORNL :  cpu time    0.0221: real time    0.0224
    STRESS:  cpu time    0.1645: real time    0.1671
    FORCOR:  cpu time    0.1472: real time    0.1496
    FORHAR:  cpu time    0.0476: real time    0.0486
    MIXING:  cpu time    0.0053: real time    0.0054
    OFIELD:  cpu time    0.0000: real time    0.0000

  FORCE on cell =-STRESS in cart. coord.  units (eV):
  Direction    XX          YY          ZZ          XY          YZ          ZX
  --------------------------------------------------------------------------------------
  Alpha Z     0.22779     0.22779     0.22779
  Ewald      46.38346    44.49127    45.10977    -1.11362     0.81172    -0.80911
  Hartree    98.98681    95.94079    96.17416    -0.50947     0.10504    -0.22384
  E(xc)     -27.44453   -27.44442   -27.44469    -0.00271    -0.00153     0.00017
  Local    -204.21676  -198.79451  -199.49448     1.44263    -0.60843     0.80075
  n-local   -16.35586   -16.40175   -16.40722     0.00340    -0.03238     0.02101
  augment     0.10978     0.10476     0.10274     0.00163    -0.00368     0.00255
  Kinetic   102.55947   102.55679   102.54230     0.14450     0.07277    -0.00613
  Fock        0.00000     0.00000     0.00000     0.00000     0.00000     0.00000
  -------------------------------------------------------------------------------------
  Total       0.25015     0.68072     0.81035    -0.03364     0.34353    -0.21460
  in kB       0.37686     1.02552     1.22081    -0.05067     0.51753    -0.32330
  external pressure =        0.87 kB  Pullay stress =        0.00 kB

  kinetic pressure (ideal gas correction) =      0.02 kB
  total pressure  =      0.89 kB
  Total+kin.     0.385       1.055       1.241      -0.065       0.529      -0.333

 VOLUME and BASIS-vectors are now :
 -----------------------------------------------------------------------------
  energy-cutoff  :      400.00
  volume of cell :     1063.50
      direct lattice vectors                 reciprocal lattice vectors
    10.051640416  0.000000000  0.000000000     0.099486249  0.002890826  0.001783640
    -0.299185496 10.296309107  0.000000000     0.000000000  0.097122181 -0.001249514
    -0.188072079  0.132202716 10.275845841     0.000000000  0.000000000  0.097315590

  length of vectors
    10.051640416 10.300654988 10.278417019     0.099544221  0.097130219  0.097315590


 FORCES acting on ions
    electron-ion (+dipol)            ewald-force                    non-local-force                 convergence-correction
 -----------------------------------------------------------------------------------------------
   -.183E+02 0.301E+02 0.420E+02   0.208E+02 -.342E+02 -.476E+02   -.203E+01 0.332E+01 0.464E+01   0.394E-05 -.614E-06 0.103E-04
   0.531E+02 -.601E+01 0.370E+01   -.589E+02 0.664E+01 -.411E+01   0.555E+01 -.647E+00 0.379E+00   0.179E-06 -.218E-04 -.108E-04
   -.230E+02 -.489E+02 0.120E+01   0.257E+02 0.547E+02 -.133E+01   -.243E+01 -.521E+01 0.124E+00   0.235E-04 -.113E-04 -.908E-05
   -.120E+02 0.243E+02 -.466E+02   0.134E+02 -.271E+02 0.520E+02   -.126E+01 0.256E+01 -.494E+01   0.145E-04 -.204E-04 -.549E-05
   0.661E+00 0.158E+00 -.794E+00   -.919E+00 -.216E-01 0.109E+01   -.283E+00 0.275E+00 0.296E+00   0.101E-03 -.130E-03 -.513E-04
 -----------------------------------------------------------------------------------------------
   0.455E+00 -.303E+00 -.499E+00   -.711E-14 -.347E-17 0.000E+00   -.456E+00 0.303E+00 0.499E+00   0.143E-03 -.184E-03 -.663E-04
 
 
 POSITION                                       TOTAL-FORCE (eV/Angst)
 -----------------------------------------------------------------------------------
      5.19176      4.27835      3.76258         0.419164     -0.718512     -0.989211
      3.75854      4.98383      4.50022        -0.304686     -0.017558     -0.031230
      5.29568      5.83670      4.55130         0.310884      0.565263     -0.011859
      5.07764      4.37385      5.51062         0.115412     -0.239475      0.437700
      4.83739      4.86063      4.57480        -0.540998      0.410885      0.594692
 -----------------------------------------------------------------------------------
    total drift:                               -0.000224      0.000603      0.000093


--------------------------------------------------------------------------------------------------------



  FREE ENERGIE OF THE ION-ELECTRON SYSTEM (eV)
  ---------------------------------------------------
  free  energy   TOTEN  =       -23.99528962 eV

  energy  without entropy=      -23.99528962  energy(sigma->0) =      -23.99528962
 
 d Force =-0.1146351E-01[-0.129E-01,-0.100E-01]  d Energy =-0.1145295E-01-0.106E-04
 d Force =-0.9354926E+00[-0.939E+00,-0.932E+00]  d Ewald  =-0.9354848E+00-0.782E-05


--------------------------------------------------------------------------------------------------------


    POTLOK:  cpu time    0.1481: real time    0.1524


--------------------------------------------------------------------------------------------------------


 stress matrix after NEB project (eV)
      0.25015     -0.03364     -0.21460
     -0.03364      0.68072      0.34353
     -0.21460      0.34353      0.81035
  FORCES: max atom, RMS     1.292476    0.807259
  FORCE total and by dimension    1.805086    0.989211
  Stress total and by dimension    1.230049    0.810353
           RANDOM_SEED =         581385115               30                0
   IONSTEP:  cpu time    0.0002: real time    0.0002

  ENERGY OF THE ELECTRON-ION-THERMOSTAT SYSTEM (eV)
  ---------------------------------------------------
% ion-electron   TOTEN  =       -23.995290  see above
  kinetic energy EKIN   =         0.013800
  kin. lattice  EKIN_LAT=         0.000000  (temperature   26.69 K)
  nose potential ES     =         0.000000
  nose kinetic   EPS    =         0.000000
  ---------------------------------------------------
  total energy   ETOTAL =       -23.981489 eV

  maximum distance moved by ions :      0.36E-03


 mean value of Nose-termostat <S>:     1.000 mean value of <T> :    49.014
 mean temperature <T/S>/<1/S>  :    49.014

    WAVPRE:  cpu time    0.0543: real time    0.0555
    FEWALD:  cpu time    0.0006: real time    0.0007
    ORTHCH:  cpu time    0.0093: real time    0.0095
 Prediction of Wavefunctions ALPHA= 2.153 BETA=-1.180
    POTLOK:  cpu time    0.1501: real time    0.1527
    EDDIAG:  cpu time    0.0387: real time    0.0395
     LOOP+:  cpu time    2.1775: real time    2.2296
    4ORBIT:  cpu time    0.0000: real time    0.0008

 total amount of memory used by VASP MPI-rank0    56835. kBytes
=======================================================================

   base      :      30000. kBytes
   nonl-proj :       2860. kBytes
   fftplans  :       8582. kBytes
   grid      :      13527. kBytes
   one-center:          6. kBytes
   wavefun   :       1860. kBytes
 
  
  
 General timing and accounting informations for this job:
 ========================================================
  
                  Total CPU time used (sec):       30.963
                            User time (sec):       27.899
                          System time (sec):        3.064
                         Elapsed time (sec):       32.261
  
                   Maximum memory used (kb):      178264.
                   Average memory used (kb):           0.
  
                          Minor page faults:       266013
                          Major page faults:          106
                 Voluntary context switches:          529
