<?xml version="1.0" encoding="ISO-8859-1"?>
<modeling>
 <generator>
  <i name="program" type="string">vasp </i>
  <i name="version" type="string">5.4.4.18Apr17-6-g9f103f2a35  </i>
  <i name="subversion" type="string">(build Nov 25 2021 15:25:00) complex            parallel </i>
  <i name="platform" type="string">LinuxIFC </i>
  <i name="date" type="string">2022 02 21 </i>
  <i name="time" type="string">10:17:45 </i>
 </generator>
 <incar>
  <i type="string" name="PREC">a</i>
  <i type="string" name="ALGO">Fast</i>
  <i type="int" name="NELM">   120</i>
  <i type="int" name="NELMIN">     4</i>
  <i type="int" name="IBRION">     0</i>
  <i name="EDIFF">      0.00000100</i>
  <i type="int" name="NSW">    10</i>
  <i type="int" name="ISIF">     2</i>
  <i type="int" name="ISYM">     0</i>
  <i name="ENCUT">    400.00000000</i>
  <i name="POTIM">      0.50000000</i>
  <i type="logical" name="LREAL"> F  </i>
  <i type="int" name="ISMEAR">     0</i>
  <i name="SIGMA">      0.20000000</i>
  <i name="KSPACING">      0.50000000</i>
  <i type="logical" name="KGAMMA"> F  </i>
  <i name="PSTRESS">      0.00000000</i>
  <i type="logical" name="LWAVE"> F  </i>
  <i type="logical" name="LCHARG"> F  </i>
  <v type="int" name="KPOINT_BSE">    -1     0     0     0</v>
  <i type="int" name="NELM">   120</i>
 </incar>
 <structure name="primitive_cell" >
  <crystal>
   <varray name="basis" >
    <v>      10.05164042       0.00000000       0.00000000 </v>
    <v>      -0.29918550      10.29630911       0.00000000 </v>
    <v>      -0.18807208       0.13220272      10.27584584 </v>
   </varray>
   <i name="volume">   1063.49657680 </i>
   <varray name="rec_basis" >
    <v>       0.09948625       0.00289083       0.00178364 </v>
    <v>       0.00000000       0.09712218      -0.00124951 </v>
    <v>       0.00000000       0.00000000       0.09731559 </v>
   </varray>
  </crystal>
  <varray name="positions" >
   <v>      -0.46167093       0.40670230       0.36061397 </v>
   <v>      -0.49667349       0.46630741       0.44537175 </v>
   <v>      -0.47188271       0.41647454      -0.46076319 </v>
   <v>      -0.44789970      -0.43459885       0.44292730 </v>
   <v>       0.39452969       0.48037704       0.43843796 </v>
  </varray>
 </structure>
 <varray name="primitive_index" >
  <v type="int" >        1 </v>
  <v type="int" >        5 </v>
  <v type="int" >        4 </v>
  <v type="int" >        3 </v>
  <v type="int" >        2 </v>
 </varray>
 <kpoints>
  <generation param="Monkhorst-Pack">
   <v type="int" name="divisions">       2        2        2 </v>
   <v name="usershift">      0.00000000       0.00000000       0.00000000 </v>
   <v name="genvec1">      0.50000000       0.00000000      -0.00000000 </v>
   <v name="genvec2">      0.00000000       0.50000000      -0.00000000 </v>
   <v name="genvec3">      0.00000000       0.00000000       0.50000000 </v>
   <v name="shift">      0.50000000       0.50000000       0.50000000 </v>
  </generation>
  <varray name="kpointlist" >
   <v>       0.25000000       0.25000000       0.25000000 </v>
   <v>      -0.25000000       0.25000000       0.25000000 </v>
   <v>       0.25000000      -0.25000000       0.25000000 </v>
   <v>      -0.25000000      -0.25000000       0.25000000 </v>
  </varray>
  <varray name="weights" >
   <v>       0.25000000 </v>
   <v>       0.25000000 </v>
   <v>       0.25000000 </v>
   <v>       0.25000000 </v>
  </varray>
 </kpoints>
 <parameters>
  <separator name="general" >
   <i type="string" name="SYSTEM">unknown system</i>
   <i type="logical" name="LCOMPAT"> F  </i>
  </separator>
  <separator name="electronic" >
   <i type="string" name="PREC">a</i>
   <i name="ENMAX">    400.00000000</i>
   <i name="ENAUG">    644.87300000</i>
   <i name="EDIFF">      0.00000100</i>
   <i type="int" name="IALGO">    68</i>
   <i type="int" name="IWAVPR">    12</i>
   <i type="int" name="NBANDS">     8</i>
   <i name="NELECT">      8.00000000</i>
   <i type="int" name="TURBO">     0</i>
   <i type="int" name="IRESTART">     0</i>
   <i type="int" name="NREBOOT">     0</i>
   <i type="int" name="NMIN">     0</i>
   <i name="EREF">      0.00000000</i>
   <separator name="electronic smearing" >
    <i type="int" name="ISMEAR">     0</i>
    <i name="SIGMA">      0.20000000</i>
    <i name="KSPACING">      0.50000000</i>
    <i type="logical" name="KGAMMA"> F  </i>
   </separator>
   <separator name="electronic projectors" >
    <i type="logical" name="LREAL"> F  </i>
    <v name="ROPT">      0.00000000      0.00000000</v>
    <i type="int" name="LMAXPAW">  -100</i>
    <i type="int" name="LMAXMIX">     2</i>
    <i type="logical" name="NLSPLINE"> F  </i>
   </separator>
   <separator name="electronic startup" >
    <i type="int" name="ISTART">     0</i>
    <i type="int" name="ICHARG">     2</i>
    <i type="int" name="INIWAV">     1</i>
   </separator>
   <separator name="electronic spin" >
    <i type="int" name="ISPIN">     1</i>
    <i type="logical" name="LNONCOLLINEAR"> F  </i>
    <v name="MAGMOM">      1.00000000      1.00000000      1.00000000      1.00000000      1.00000000</v>
    <i name="NUPDOWN">     -1.00000000</i>
    <i type="logical" name="LSORBIT"> F  </i>
    <v name="SAXIS">      0.00000000      0.00000000      1.00000000</v>
    <i type="logical" name="LSPIRAL"> F  </i>
    <v name="QSPIRAL">      0.00000000      0.00000000      0.00000000</v>
    <i type="logical" name="LZEROZ"> F  </i>
   </separator>
   <separator name="electronic exchange-correlation" >
    <i type="logical" name="LASPH"> F  </i>
    <i type="logical" name="LMETAGGA"> F  </i>
   </separator>
   <separator name="electronic convergence" >
    <i type="int" name="NELM">   120</i>
    <i type="int" name="NELMDL">    -5</i>
    <i type="int" name="NELMIN">     4</i>
    <i name="ENINI">    400.00000000</i>
    <separator name="electronic convergence detail" >
     <i type="logical" name="LDIAG"> T  </i>
     <i type="logical" name="LSUBROT"> F  </i>
     <i name="WEIMIN">      0.00100000</i>
     <i name="EBREAK">      0.00000003</i>
     <i name="DEPER">      0.30000000</i>
     <i type="int" name="NRMM">     4</i>
     <i name="TIME">      0.40000000</i>
    </separator>
   </separator>
   <separator name="electronic mixer" >
    <i name="AMIX">      0.40000000</i>
    <i name="BMIX">      1.00000000</i>
    <i name="AMIN">      0.10000000</i>
    <i name="AMIX_MAG">      1.60000000</i>
    <i name="BMIX_MAG">      1.00000000</i>
    <separator name="electronic mixer details" >
     <i type="int" name="IMIX">     4</i>
     <i type="logical" name="MIXFIRST"> F  </i>
     <i type="int" name="MAXMIX">   -45</i>
     <i name="WC">    100.00000000</i>
     <i type="int" name="INIMIX">     1</i>
     <i type="int" name="MIXPRE">     1</i>
     <i type="int" name="MREMOVE">     5</i>
    </separator>
   </separator>
   <separator name="electronic dipolcorrection" >
    <i type="logical" name="LDIPOL"> F  </i>
    <i type="logical" name="LMONO"> F  </i>
    <i type="int" name="IDIPOL">     0</i>
    <i name="EPSILON">      1.00000000</i>
    <v name="DIPOL">   -100.00000000   -100.00000000   -100.00000000</v>
    <i name="EFIELD">      0.00000000</i>
   </separator>
  </separator>
  <separator name="grids" >
   <i type="int" name="NGX">    70</i>
   <i type="int" name="NGY">    70</i>
   <i type="int" name="NGZ">    70</i>
   <i type="int" name="NGXF">   140</i>
   <i type="int" name="NGYF">   140</i>
   <i type="int" name="NGZF">   140</i>
   <i type="logical" name="ADDGRID"> F  </i>
  </separator>
  <separator name="ionic" >
   <i type="int" name="NSW">    10</i>
   <i type="int" name="IBRION">     0</i>
   <i type="int" name="MDALGO">     0</i>
   <i type="int" name="ISIF">     2</i>
   <i name="PSTRESS">      0.00000000</i>
   <i name="EDIFFG">      0.00001000</i>
   <i type="int" name="NFREE">     0</i>
   <i name="POTIM">      0.50000000</i>
   <i name="SMASS">     -3.00000000</i>
   <i name="SCALEE">      1.00000000</i>
  </separator>
  <separator name="ionic md" >
   <i name="TEBEG">      0.00010000</i>
   <i name="TEEND">      0.00010000</i>
   <i type="int" name="NBLOCK">     1</i>
   <i type="int" name="KBLOCK">    10</i>
   <i type="int" name="NPACO">   256</i>
   <i name="APACO">     16.00000000</i>
  </separator>
  <separator name="symmetry" >
   <i type="int" name="ISYM">     0</i>
   <i name="SYMPREC">      0.00001000</i>
  </separator>
  <separator name="dos" >
   <i type="int" name="LORBIT">     0</i>
   <v name="RWIGS">     -1.00000000     -1.00000000</v>
   <i type="int" name="NEDOS">   301</i>
   <i name="EMIN">     10.00000000</i>
   <i name="EMAX">    -10.00000000</i>
   <i name="EFERMI">      0.00000000</i>
  </separator>
  <separator name="writing" >
   <i type="int" name="NWRITE">     2</i>
   <i type="logical" name="LWAVE"> F  </i>
   <i type="logical" name="LDOWNSAMPLE"> F  </i>
   <i type="logical" name="LCHARG"> F  </i>
   <i type="logical" name="LPARD"> F  </i>
   <i type="logical" name="LVTOT"> F  </i>
   <i type="logical" name="LVHAR"> F  </i>
   <i type="logical" name="LELF"> F  </i>
   <i type="logical" name="LOPTICS"> F  </i>
   <v name="STM">      0.00000000      0.00000000      0.00000000      0.00000000      0.00000000      0.00000000      0.00000000</v>
  </separator>
  <separator name="performance" >
   <i type="int" name="NPAR">     4</i>
   <i type="int" name="NSIM">     4</i>
   <i type="int" name="NBLK">    -1</i>
   <i type="logical" name="LPLANE"> T  </i>
   <i type="logical" name="LSCALAPACK"> T  </i>
   <i type="logical" name="LSCAAWARE"> F  </i>
   <i type="logical" name="LSCALU"> F  </i>
   <i type="logical" name="LASYNC"> F  </i>
   <i type="logical" name="LORBITALREAL"> F  </i>
  </separator>
  <separator name="miscellaneous" >
   <i type="int" name="IDIOT">     3</i>
   <i type="int" name="ISPECIAL">     0</i>
   <i type="logical" name="LMUSIC"> F  </i>
   <v name="POMASS">      1.00000000     12.01100000</v>
   <v name="DARWINR">      0.00000000      0.00000000</v>
   <v name="DARWINV">      1.00000000      1.00000000</v>
   <i type="logical" name="LCORR"> T  </i>
  </separator>
  <i type="logical" name="GGA_COMPAT"> T  </i>
  <i type="logical" name="LBERRY"> F  </i>
  <i type="int" name="ICORELEVEL">     0</i>
  <i type="logical" name="LDAU"> F  </i>
  <i type="int" name="I_CONSTRAINED_M">     0</i>
  <separator name="electronic exchange-correlation" >
   <i type="string" name="GGA">--</i>
   <i type="int" name="VOSKOWN">     0</i>
   <i type="logical" name="LHFCALC"> F  </i>
   <i type="string" name="PRECFOCK"></i>
   <i type="logical" name="LSYMGRAD"> F  </i>
   <i type="logical" name="LHFONE"> F  </i>
   <i type="logical" name="LRHFCALC"> F  </i>
   <i type="logical" name="LTHOMAS"> F  </i>
   <i type="logical" name="LMODELHF"> F  </i>
   <i name="ENCUT4O">     -1.00000000</i>
   <i type="int" name="EXXOEP">     0</i>
   <i type="int" name="FOURORBIT">     0</i>
   <i name="AEXX">      0.00000000</i>
   <i name="HFALPHA">      0.00000000</i>
   <i name="MCALPHA">      0.00000000</i>
   <i name="ALDAX">      1.00000000</i>
   <i name="AGGAX">      1.00000000</i>
   <i name="ALDAC">      1.00000000</i>
   <i name="AGGAC">      1.00000000</i>
   <i type="int" name="NKREDX">     1</i>
   <i type="int" name="NKREDY">     1</i>
   <i type="int" name="NKREDZ">     1</i>
   <i type="logical" name="SHIFTRED"> F  </i>
   <i type="logical" name="ODDONLY"> F  </i>
   <i type="logical" name="EVENONLY"> F  </i>
   <i type="int" name="LMAXFOCK">     0</i>
   <i type="int" name="NMAXFOCKAE">     0</i>
   <i type="logical" name="LFOCKAEDFT"> F  </i>
   <i name="HFSCREEN">      0.00000000</i>
   <i name="HFSCREENC">      0.00000000</i>
   <i type="int" name="NBANDSGWLOW">     0</i>
  </separator>
  <separator name="vdW DFT" >
   <i type="logical" name="LUSE_VDW"> F  </i>
   <i name="Zab_VDW">     -0.84910000</i>
   <i name="PARAM1">      0.12340000</i>
   <i name="PARAM2">      1.00000000</i>
   <i name="PARAM3">      0.00000000</i>
  </separator>
  <separator name="model GW" >
   <i type="int" name="MODEL_GW">     0</i>
   <i name="MODEL_EPS0">    127.61958922</i>
   <i name="MODEL_ALPHA">      1.00000000</i>
  </separator>
  <separator name="linear response parameters" >
   <i type="logical" name="LEPSILON"> F  </i>
   <i type="logical" name="LRPA"> F  </i>
   <i type="logical" name="LNABLA"> F  </i>
   <i type="logical" name="LVEL"> F  </i>
   <i type="int" name="KINTER">     0</i>
   <i name="CSHIFT">      0.10000000</i>
   <i name="OMEGAMAX">     -1.00000000</i>
   <i name="DEG_THRESHOLD">      0.00200000</i>
   <i name="RTIME">     -0.10000000</i>
   <i name="WPLASMAI">      0.00000000</i>
   <v name="DFIELD">      0.00000000      0.00000000      0.00000000</v>
   <v name="WPLASMA">      0.00000000      0.00000000      0.00000000      0.00000000      0.00000000      0.00000000      0.00000000      0.00000000      0.00000000</v>
  </separator>
  <separator name="orbital magnetization" >
   <i type="logical" name="NUCIND"> F  </i>
   <v name="MAGPOS">      0.00000000      0.00000000      0.00000000</v>
   <i type="logical" name="LNICSALL"> T  </i>
   <i type="logical" name="ORBITALMAG"> F  </i>
   <i type="logical" name="LMAGBLOCH"> F  </i>
   <i type="logical" name="LCHIMAG"> F  </i>
   <i type="logical" name="LGAUGE"> T  </i>
   <i type="int" name="MAGATOM">     0</i>
   <v name="MAGDIPOL">      0.00000000      0.00000000      0.00000000</v>
   <v name="AVECCONST">      0.00000000      0.00000000      0.00000000</v>
  </separator>
  <separator name="response functions" >
   <i type="logical" name="LADDER"> F  </i>
   <i type="logical" name="LRPAFORCE"> F  </i>
   <i type="logical" name="LFXC"> F  </i>
   <i type="logical" name="LHARTREE"> T  </i>
   <i type="int" name="IBSE">     0</i>
   <v type="int" name="KPOINT">    -1     0     0     0</v>
   <i type="logical" name="LTCTE"> F  </i>
   <i type="logical" name="LTETE"> F  </i>
   <i type="logical" name="LTRIPLET"> F  </i>
   <i type="logical" name="LFXCEPS"> F  </i>
   <i type="logical" name="LFXHEG"> F  </i>
   <i type="int" name="NATURALO">     2</i>
   <i type="logical" name="L2ORDER"> F  </i>
   <i type="logical" name="LMP2LT"> F  </i>
   <i type="logical" name="LUSEW"> F  </i>
   <i name="ENCUTGW">     -2.00000000</i>
   <i name="ENCUTGWSOFT">     -2.00000000</i>
   <i name="ENCUTLF">     -1.00000000</i>
   <i type="int" name="LMAXMP2">    -1</i>
   <i name="SCISSOR">      0.00000000</i>
   <i type="int" name="NOMEGA">     0</i>
   <i type="int" name="NOMEGAR">     0</i>
   <i type="int" name="NBANDSGW">    -1</i>
   <i type="int" name="NBANDSO">    -1</i>
   <i type="int" name="NBANDSV">    -1</i>
   <i type="int" name="NELM">   120</i>
   <i type="int" name="NELMHF">     1</i>
   <i type="int" name="DIM">     3</i>
   <i type="int" name="ANTIRES">     0</i>
   <i name="OMEGAMAX">    -30.00000000</i>
   <i name="OMEGAMIN">    -30.00000000</i>
   <i name="OMEGATL">   -200.00000000</i>
   <i type="int" name="OMEGAGRID">   140</i>
   <i name="CSHIFT">     -0.10000000</i>
   <i type="logical" name="SELFENERGY"> F  </i>
   <i type="logical" name="LSPECTRAL"> F  </i>
   <i type="logical" name="LSPECTRALGW"> F  </i>
   <i type="logical" name="LSINGLES"> F  </i>
   <i type="logical" name="LFERMIGW"> F  </i>
   <i type="logical" name="ODDONLYGW"> F  </i>
   <i type="logical" name="EVENONLYGW"> F  </i>
   <i type="int" name="NKREDLFX">     1</i>
   <i type="int" name="NKREDLFY">     1</i>
   <i type="int" name="NKREDLFZ">     1</i>
   <i type="int" name="MAXMEM">  2800</i>
   <i type="int" name="TELESCOPE">     0</i>
   <i type="int" name="TAUPAR">     1</i>
   <i type="int" name="OMEGAPAR">    -1</i>
   <i name="LAMBDA">      1.00000000</i>
  </separator>
  <separator name="External order field" >
   <i name="OFIELD_KAPPA">      0.00000000</i>
   <v name="OFIELD_K">      0.00000000      0.00000000      0.00000000</v>
   <i name="OFIELD_Q6_NEAR">      0.00000000</i>
   <i name="OFIELD_Q6_FAR">      0.00000000</i>
   <i name="OFIELD_A">      0.00000000</i>
  </separator>
 </parameters>
 <atominfo>
  <atoms>       5 </atoms>
  <types>       2 </types>
  <array name="atoms" >
   <dimension dim="1">ion</dimension>
   <field type="string">element</field>
   <field type="int">atomtype</field>
   <set>
    <rc><c>H </c><c>   1</c></rc>
    <rc><c>H </c><c>   1</c></rc>
    <rc><c>H </c><c>   1</c></rc>
    <rc><c>H </c><c>   1</c></rc>
    <rc><c>C </c><c>   2</c></rc>
   </set>
  </array>
  <array name="atomtypes" >
   <dimension dim="1">type</dimension>
   <field type="int">atomspertype</field>
   <field type="string">element</field>
   <field>mass</field>
   <field>valence</field>
   <field type="string">pseudopotential</field>
   <set>
    <rc><c>   4</c><c>H </c><c>      1.00000000</c><c>      1.00000000</c><c>  PAW_PBE H 15Jun2001                   </c></rc>
    <rc><c>   1</c><c>C </c><c>     12.01100000</c><c>      4.00000000</c><c>  PAW_PBE C 08Apr2002                   </c></rc>
   </set>
  </array>
 </atominfo>
 <structure name="initialpos" >
  <crystal>
   <varray name="basis" >
    <v>      10.05164042       0.00000000       0.00000000 </v>
    <v>      -0.29918550      10.29630911       0.00000000 </v>
    <v>      -0.18807208       0.13220272      10.27584584 </v>
   </varray>
   <i name="volume">   1063.49657680 </i>
   <varray name="rec_basis" >
    <v>       0.09948625       0.00289083       0.00178364 </v>
    <v>       0.00000000       0.09712218      -0.00124951 </v>
    <v>       0.00000000       0.00000000       0.09731559 </v>
   </varray>
  </crystal>
  <varray name="positions" >
   <v>       0.53832907       0.40670230       0.36061397 </v>
   <v>       0.39452969       0.48037704       0.43843796 </v>
   <v>       0.55210030       0.56540115       0.44292730 </v>
   <v>       0.52811729       0.41647454       0.53923681 </v>
   <v>       0.50332651       0.46630741       0.44537175 </v>
  </varray>
  <varray name="velocities" >
   <v>       0.00000042      -0.00000014      -0.00000066 </v>
   <v>       0.00000020      -0.00000054      -0.00000002 </v>
   <v>       0.00000051       0.00000027      -0.00000028 </v>
   <v>       0.00000024       0.00000078       0.00000039 </v>
   <v>      -0.00000011      -0.00000003       0.00000005 </v>
  </varray>
 </structure>
 <calculation>
  <scstep>
   <time name="dav">    0.22    0.24</time>
   <time name="total">    0.40    0.44</time>
   <energy>
    <i name="alphaZ">      0.22778709 </i>
    <i name="ewald">    125.97669831 </i>
    <i name="hartreedc">   -243.68624783 </i>
    <i name="XCdc">     21.88075956 </i>
    <i name="pawpsdc">    117.05815612 </i>
    <i name="pawaedc">   -117.66307307 </i>
    <i name="eentropy">     -0.00000000 </i>
    <i name="bandstr">    -88.49798071 </i>
    <i name="atom">    197.04175453 </i>
    <i name="e_fr_energy">     12.33785401 </i>
    <i name="e_wo_entrp">     12.33785401 </i>
    <i name="e_0_energy">     12.33785401 </i>
   </energy>
  </scstep>
  <scstep>
   <time name="dav">    0.16    0.16</time>
   <time name="total">    0.16    0.16</time>
   <energy>
    <i name="e_fr_energy">    -22.97906891 </i>
    <i name="e_wo_entrp">    -22.97906891 </i>
    <i name="e_0_energy">    -22.97906891 </i>
   </energy>
  </scstep>
  <scstep>
   <time name="dav">    0.16    0.16</time>
   <time name="total">    0.16    0.16</time>
   <energy>
    <i name="e_fr_energy">    -27.02982147 </i>
    <i name="e_wo_entrp">    -27.02982147 </i>
    <i name="e_0_energy">    -27.02982147 </i>
   </energy>
  </scstep>
  <scstep>
   <time name="dav">    0.27    0.28</time>
   <time name="total">    0.27    0.28</time>
   <energy>
    <i name="e_fr_energy">    -27.19754445 </i>
    <i name="e_wo_entrp">    -27.19754445 </i>
    <i name="e_0_energy">    -27.19754445 </i>
   </energy>
  </scstep>
  <scstep>
   <time name="dav">    0.21    0.22</time>
   <time name="total">    0.24    0.25</time>
   <energy>
    <i name="e_fr_energy">    -27.19760065 </i>
    <i name="e_wo_entrp">    -27.19760065 </i>
    <i name="e_0_energy">    -27.19760065 </i>
   </energy>
  </scstep>
  <scstep>
   <time name="diag">    0.05    0.06</time>
   <time name="diis">    0.17    0.17</time>
   <time name="orth">    0.00    0.00</time>
   <time name="total">    0.41    0.44</time>
   <energy>
    <i name="e_fr_energy">    -24.56655909 </i>
    <i name="e_wo_entrp">    -24.56655909 </i>
    <i name="e_0_energy">    -24.56655909 </i>
   </energy>
  </scstep>
  <scstep>
   <time name="diag">    0.04    0.04</time>
   <time name="diis">    0.16    0.17</time>
   <time name="orth">    0.00    0.00</time>
   <time name="total">    0.38    0.40</time>
   <energy>
    <i name="e_fr_energy">    -24.12223143 </i>
    <i name="e_wo_entrp">    -24.12223143 </i>
    <i name="e_0_energy">    -24.12223143 </i>
   </energy>
  </scstep>
  <scstep>
   <time name="diag">    0.04    0.04</time>
   <time name="diis">    0.16    0.17</time>
   <time name="orth">    0.00    0.00</time>
   <time name="total">    0.38    0.39</time>
   <energy>
    <i name="e_fr_energy">    -23.98011004 </i>
    <i name="e_wo_entrp">    -23.98011004 </i>
    <i name="e_0_energy">    -23.98011004 </i>
   </energy>
  </scstep>
  <scstep>
   <time name="diag">    0.04    0.04</time>
   <time name="diis">    0.16    0.17</time>
   <time name="orth">    0.00    0.00</time>
   <time name="total">    0.38    0.40</time>
   <energy>
    <i name="e_fr_energy">    -23.97461318 </i>
    <i name="e_wo_entrp">    -23.97461318 </i>
    <i name="e_0_energy">    -23.97461318 </i>
   </energy>
  </scstep>
  <scstep>
   <time name="diag">    0.04    0.04</time>
   <time name="diis">    0.16    0.17</time>
   <time name="orth">    0.00    0.00</time>
   <time name="total">    0.37    0.38</time>
   <energy>
    <i name="e_fr_energy">    -23.96804011 </i>
    <i name="e_wo_entrp">    -23.96804011 </i>
    <i name="e_0_energy">    -23.96804011 </i>
   </energy>
  </scstep>
  <scstep>
   <time name="diag">    0.04    0.04</time>
   <time name="diis">    0.16    0.16</time>
   <time name="orth">    0.00    0.00</time>
   <time name="total">    0.37    0.38</time>
   <energy>
    <i name="e_fr_energy">    -23.96920736 </i>
    <i name="e_wo_entrp">    -23.96920736 </i>
    <i name="e_0_energy">    -23.96920736 </i>
   </energy>
  </scstep>
  <scstep>
   <time name="diag">    0.04    0.04</time>
   <time name="diis">    0.16    0.17</time>
   <time name="orth">    0.00    0.00</time>
   <time name="total">    0.36    0.38</time>
   <energy>
    <i name="e_fr_energy">    -23.97784459 </i>
    <i name="e_wo_entrp">    -23.97784459 </i>
    <i name="e_0_energy">    -23.97784459 </i>
   </energy>
  </scstep>
  <scstep>
   <time name="diag">    0.04    0.04</time>
   <time name="diis">    0.16    0.16</time>
   <time name="orth">    0.00    0.00</time>
   <time name="total">    0.37    0.37</time>
   <energy>
    <i name="e_fr_energy">    -23.97866592 </i>
    <i name="e_wo_entrp">    -23.97866592 </i>
    <i name="e_0_energy">    -23.97866592 </i>
   </energy>
  </scstep>
  <scstep>
   <time name="diag">    0.04    0.04</time>
   <time name="diis">    0.16    0.17</time>
   <time name="orth">    0.00    0.00</time>
   <time name="total">    0.37    0.37</time>
   <energy>
    <i name="e_fr_energy">    -23.98150631 </i>
    <i name="e_wo_entrp">    -23.98150631 </i>
    <i name="e_0_energy">    -23.98150631 </i>
   </energy>
  </scstep>
  <scstep>
   <time name="diag">    0.04    0.04</time>
   <time name="diis">    0.16    0.17</time>
   <time name="orth">    0.00    0.00</time>
   <time name="total">    0.37    0.37</time>
   <energy>
    <i name="e_fr_energy">    -23.98176045 </i>
    <i name="e_wo_entrp">    -23.98176045 </i>
    <i name="e_0_energy">    -23.98176045 </i>
   </energy>
  </scstep>
  <scstep>
   <time name="diag">    0.04    0.04</time>
   <time name="diis">    0.16    0.16</time>
   <time name="orth">    0.00    0.00</time>
   <time name="total">    0.37    0.37</time>
   <energy>
    <i name="e_fr_energy">    -23.98200014 </i>
    <i name="e_wo_entrp">    -23.98200014 </i>
    <i name="e_0_energy">    -23.98200014 </i>
   </energy>
  </scstep>
  <scstep>
   <time name="diag">    0.04    0.04</time>
   <time name="diis">    0.16    0.17</time>
   <time name="orth">    0.00    0.00</time>
   <time name="total">    0.37    0.38</time>
   <energy>
    <i name="e_fr_energy">    -23.98204440 </i>
    <i name="e_wo_entrp">    -23.98204440 </i>
    <i name="e_0_energy">    -23.98204440 </i>
   </energy>
  </scstep>
  <scstep>
   <time name="diag">    0.04    0.04</time>
   <time name="diis">    0.13    0.13</time>
   <time name="orth">    0.00    0.00</time>
   <time name="total">    0.34    0.35</time>
   <energy>
    <i name="e_fr_energy">    -23.98206363 </i>
    <i name="e_wo_entrp">    -23.98206363 </i>
    <i name="e_0_energy">    -23.98206363 </i>
   </energy>
  </scstep>
  <scstep>
   <time name="diag">    0.04    0.04</time>
   <time name="diis">    0.16    0.16</time>
   <time name="orth">    0.00    0.00</time>
   <time name="total">    0.37    0.38</time>
   <energy>
    <i name="e_fr_energy">    -23.98206865 </i>
    <i name="e_wo_entrp">    -23.98206865 </i>
    <i name="e_0_energy">    -23.98206865 </i>
   </energy>
  </scstep>
  <scstep>
   <time name="diag">    0.04    0.04</time>
   <time name="diis">    0.13    0.13</time>
   <time name="orth">    0.00    0.00</time>
   <time name="total">    0.32    0.32</time>
   <energy>
    <i name="alphaZ">      0.22778709 </i>
    <i name="ewald">    125.97669831 </i>
    <i name="hartreedc">   -282.29647547 </i>
    <i name="XCdc">     24.49240034 </i>
    <i name="pawpsdc">    436.09754790 </i>
    <i name="pawaedc">   -436.86668005 </i>
    <i name="eentropy">     -0.00000000 </i>
    <i name="bandstr">    -88.65510183 </i>
    <i name="atom">    197.04175453 </i>
    <i name="e_fr_energy">    -23.98206918 </i>
    <i name="e_wo_entrp">    -23.98206918 </i>
    <i name="e_0_energy">    -23.98206918 </i>
   </energy>
  </scstep>
  <structure>
   <crystal>
    <varray name="basis" >
     <v>      10.05164042       0.00000000       0.00000000 </v>
     <v>      -0.29918550      10.29630911       0.00000000 </v>
     <v>      -0.18807208       0.13220272      10.27584584 </v>
    </varray>
    <i name="volume">   1063.49657680 </i>
    <varray name="rec_basis" >
     <v>       0.09948625       0.00289083       0.00178364 </v>
     <v>       0.00000000       0.09712218      -0.00124951 </v>
     <v>       0.00000000       0.00000000       0.09731559 </v>
    </varray>
   </crystal>
   <varray name="positions" >
    <v>       0.53832907       0.40670230       0.36061397 </v>
    <v>       0.39452969       0.48037704       0.43843796 </v>
    <v>       0.55210030       0.56540115       0.44292730 </v>
    <v>       0.52811729       0.41647454       0.53923681 </v>
    <v>       0.50332651       0.46630741       0.44537175 </v>
   </varray>
  </structure>
  <varray name="forces" >
   <v>      -0.46207166       0.69868848       0.93623672 </v>
   <v>       0.31732584      -0.22769784      -0.04913104 </v>
   <v>      -0.11272041      -0.67821004       0.00175996 </v>
   <v>      -0.09176224       0.24038063      -0.49347675 </v>
   <v>       0.34879214      -0.03345634      -0.39550704 </v>
  </varray>
  <varray name="stress" >
   <v>      -1.45347584       0.39643694       0.43843259 </v>
   <v>       0.39643694      -2.46976234      -0.51189101 </v>
   <v>       0.43843259      -0.51189101      -2.47895994 </v>
  </varray>
  <energy>
   <i name="e_fr_energy">    -23.98206918 </i>
   <i name="e_wo_entrp">    -23.98206918 </i>
   <i name="e_0_energy">     -0.00000000 </i>
   <i name="kinetic">      0.00076021 </i>
   <i name="lattice kinetic">      0.00000000 </i>
   <i name="nosepot">      0.00000000 </i>
   <i name="nosekinetic">      0.00000000 </i>
   <i name="total">    -23.98130897 </i>
  </energy>
  <time name="totalsc">    7.39    7.60</time>
 </calculation>
 <calculation>
  <scstep>
   <time name="dav">    0.26    0.27</time>
   <time name="total">    0.44    0.44</time>
   <energy>
    <i name="alphaZ">      0.22778709 </i>
    <i name="ewald">    126.35286394 </i>
    <i name="hartreedc">   -282.52256082 </i>
    <i name="XCdc">     24.50376500 </i>
    <i name="pawpsdc">    436.09231558 </i>
    <i name="pawaedc">   -436.86145673 </i>
    <i name="eentropy">     -0.00000000 </i>
    <i name="bandstr">    -88.82250923 </i>
    <i name="atom">    197.04175453 </i>
    <i name="e_fr_energy">    -23.98804064 </i>
    <i name="e_wo_entrp">    -23.98804064 </i>
    <i name="e_0_energy">    -23.98804064 </i>
   </energy>
  </scstep>
  <scstep>
   <time name="diag">    0.04    0.04</time>
   <time name="diis">    0.17    0.17</time>
   <time name="orth">    0.00    0.00</time>
   <time name="total">    0.39    0.39</time>
   <energy>
    <i name="e_fr_energy">    -23.98798218 </i>
    <i name="e_wo_entrp">    -23.98798218 </i>
    <i name="e_0_energy">    -23.98798218 </i>
   </energy>
  </scstep>
  <scstep>
   <time name="diag">    0.04    0.04</time>
   <time name="diis">    0.17    0.17</time>
   <time name="orth">    0.00    0.00</time>
   <time name="total">    0.39    0.39</time>
   <energy>
    <i name="e_fr_energy">    -23.98798184 </i>
    <i name="e_wo_entrp">    -23.98798184 </i>
    <i name="e_0_energy">    -23.98798184 </i>
   </energy>
  </scstep>
  <scstep>
   <time name="diag">    0.04    0.04</time>
   <time name="diis">    0.17    0.17</time>
   <time name="orth">    0.00    0.00</time>
   <time name="total">    0.36    0.37</time>
   <energy>
    <i name="alphaZ">      0.22778709 </i>
    <i name="ewald">    126.35286394 </i>
    <i name="hartreedc">   -282.62514126 </i>
    <i name="XCdc">     24.50971394 </i>
    <i name="pawpsdc">    438.01962715 </i>
    <i name="pawaedc">   -438.78993753 </i>
    <i name="eentropy">     -0.00000000 </i>
    <i name="bandstr">    -88.72465023 </i>
    <i name="atom">    197.04175453 </i>
    <i name="e_fr_energy">    -23.98798237 </i>
    <i name="e_wo_entrp">    -23.98798237 </i>
    <i name="e_0_energy">    -23.98798237 </i>
   </energy>
  </scstep>
  <structure>
   <crystal>
    <varray name="basis" >
     <v>      10.05164042       0.00000000       0.00000000 </v>
     <v>      -0.29918550      10.29630911       0.00000000 </v>
     <v>      -0.18807208       0.13220272      10.27584584 </v>
    </varray>
    <i name="volume">   1063.49657680 </i>
    <varray name="rec_basis" >
     <v>       0.09948625       0.00289083       0.00178364 </v>
     <v>       0.00000000       0.09712218      -0.00124951 </v>
     <v>       0.00000000       0.00000000       0.09731559 </v>
    </varray>
   </crystal>
   <varray name="positions" >
    <v>       0.53822751       0.40686303       0.36083308 </v>
    <v>       0.39460424       0.48032331       0.43842641 </v>
    <v>       0.55206904       0.56524254       0.44292744 </v>
    <v>       0.52809507       0.41653313       0.53912136 </v>
    <v>       0.50333321       0.46630683       0.44536407 </v>
   </varray>
  </structure>
  <varray name="forces" >
   <v>      -0.43438935       0.65410722       0.87537852 </v>
   <v>       0.29392376      -0.22126270      -0.04891315 </v>
   <v>      -0.09680371      -0.63428001       0.00131366 </v>
   <v>      -0.08412181       0.22299640      -0.45927834 </v>
   <v>       0.32080734      -0.02172805      -0.36851434 </v>
  </varray>
  <varray name="stress" >
   <v>      -1.38324480       0.38295236       0.41403097 </v>
   <v>       0.38295236      -2.34255732      -0.47961929 </v>
   <v>       0.41403097      -0.47961929      -2.34601439 </v>
  </varray>
  <energy>
   <i name="e_fr_energy">    -23.98798237 </i>
   <i name="e_wo_entrp">    -23.98798237 </i>
   <i name="e_0_energy">     -0.00000000 </i>
   <i name="kinetic">      0.00657885 </i>
   <i name="lattice kinetic">      0.00000000 </i>
   <i name="nosepot">      0.00000000 </i>
   <i name="nosekinetic">      0.00000000 </i>
   <i name="total">    -23.98140352 </i>
  </energy>
  <time name="totalsc">    2.22    2.25</time>
 </calculation>
 <calculation>
  <scstep>
   <time name="dav">    0.20    0.20</time>
   <time name="total">    0.37    0.38</time>
   <energy>
    <i name="alphaZ">      0.22778709 </i>
    <i name="ewald">    127.08419696 </i>
    <i name="hartreedc">   -283.27626579 </i>
    <i name="XCdc">     24.54422041 </i>
    <i name="pawpsdc">    442.23099657 </i>
    <i name="pawaedc">   -443.00374467 </i>
    <i name="eentropy">     -0.00000000 </i>
    <i name="bandstr">    -88.84722909 </i>
    <i name="atom">    197.04175453 </i>
    <i name="e_fr_energy">    -23.99828398 </i>
    <i name="e_wo_entrp">    -23.99828398 </i>
    <i name="e_0_energy">    -23.99828398 </i>
   </energy>
  </scstep>
  <scstep>
   <time name="diag">    0.04    0.04</time>
   <time name="diis">    0.17    0.17</time>
   <time name="orth">    0.00    0.00</time>
   <time name="total">    0.39    0.39</time>
   <energy>
    <i name="e_fr_energy">    -23.99829221 </i>
    <i name="e_wo_entrp">    -23.99829221 </i>
    <i name="e_0_energy">    -23.99829221 </i>
   </energy>
  </scstep>
  <scstep>
   <time name="diag">    0.04    0.04</time>
   <time name="diis">    0.14    0.14</time>
   <time name="orth">    0.00    0.00</time>
   <time name="total">    0.36    0.36</time>
   <energy>
    <i name="e_fr_energy">    -23.99829316 </i>
    <i name="e_wo_entrp">    -23.99829316 </i>
    <i name="e_0_energy">    -23.99829316 </i>
   </energy>
  </scstep>
  <scstep>
   <time name="diag">    0.04    0.04</time>
   <time name="diis">    0.13    0.14</time>
   <time name="orth">    0.00    0.00</time>
   <time name="total">    0.35    0.37</time>
   <energy>
    <i name="e_fr_energy">    -23.99829431 </i>
    <i name="e_wo_entrp">    -23.99829431 </i>
    <i name="e_0_energy">    -23.99829431 </i>
   </energy>
  </scstep>
  <scstep>
   <time name="diag">    0.04    0.04</time>
   <time name="diis">    0.14    0.14</time>
   <time name="orth">    0.00    0.00</time>
   <time name="total">    0.33    0.34</time>
   <energy>
    <i name="alphaZ">      0.22778709 </i>
    <i name="ewald">    127.08419696 </i>
    <i name="hartreedc">   -283.28555034 </i>
    <i name="XCdc">     24.54455995 </i>
    <i name="pawpsdc">    442.28165701 </i>
    <i name="pawaedc">   -443.05451410 </i>
    <i name="eentropy">     -0.00000000 </i>
    <i name="bandstr">    -88.83818588 </i>
    <i name="atom">    197.04175453 </i>
    <i name="e_fr_energy">    -23.99829477 </i>
    <i name="e_wo_entrp">    -23.99829477 </i>
    <i name="e_0_energy">    -23.99829477 </i>
   </energy>
  </scstep>
  <structure>
   <crystal>
    <varray name="basis" >
     <v>      10.05164042       0.00000000       0.00000000 </v>
     <v>      -0.29918550      10.29630911       0.00000000 </v>
     <v>      -0.18807208       0.13220272      10.27584584 </v>
    </varray>
    <i name="volume">   1063.49657680 </i>
    <varray name="rec_basis" >
     <v>       0.09948625       0.00289083       0.00178364 </v>
     <v>       0.00000000       0.09712218      -0.00124951 </v>
     <v>       0.00000000       0.00000000       0.09731559 </v>
    </varray>
   </crystal>
   <varray name="positions" >
    <v>       0.53803004       0.40717437       0.36125768 </v>
    <v>       0.39474759       0.48021790       0.43840338 </v>
    <v>       0.55201015       0.56493532       0.44292788 </v>
    <v>       0.52805225       0.41664534       0.53889811 </v>
    <v>       0.50334618       0.46630592       0.44534919 </v>
   </varray>
  </structure>
  <varray name="forces" >
   <v>      -0.37915244       0.56516178       0.75390499 </v>
   <v>       0.24906747      -0.20884140      -0.04849066 </v>
   <v>      -0.06553170      -0.54828008       0.00038906 </v>
   <v>      -0.06922153       0.18917562      -0.39285054 </v>
   <v>       0.26438021       0.00252799      -0.31310077 </v>
  </varray>
  <varray name="stress" >
   <v>      -1.25735673       0.35624024       0.36494724 </v>
   <v>       0.35624024      -2.10340057      -0.41427998 </v>
   <v>       0.36494724      -0.41427998      -2.09459507 </v>
  </varray>
  <energy>
   <i name="e_fr_energy">    -23.99829477 </i>
   <i name="e_wo_entrp">    -23.99829477 </i>
   <i name="e_0_energy">     -0.00000000 </i>
   <i name="kinetic">      0.01671911 </i>
   <i name="lattice kinetic">      0.00000000 </i>
   <i name="nosepot">      0.00000000 </i>
   <i name="nosekinetic">      0.00000000 </i>
   <i name="total">    -23.98157566 </i>
  </energy>
  <time name="totalsc">    2.44    2.48</time>
 </calculation>
 <calculation>
  <scstep>
   <time name="dav">    0.21    0.21</time>
   <time name="total">    0.38    0.38</time>
   <energy>
    <i name="alphaZ">      0.22778709 </i>
    <i name="ewald">    128.12733373 </i>
    <i name="hartreedc">   -284.23135247 </i>
    <i name="XCdc">     24.59411073 </i>
    <i name="pawpsdc">    448.28255937 </i>
    <i name="pawaedc">   -449.05911158 </i>
    <i name="eentropy">     -0.00000000 </i>
    <i name="bandstr">    -88.99335473 </i>
    <i name="atom">    197.04175453 </i>
    <i name="e_fr_energy">    -24.01027333 </i>
    <i name="e_wo_entrp">    -24.01027333 </i>
    <i name="e_0_energy">    -24.01027333 </i>
   </energy>
  </scstep>
  <scstep>
   <time name="diag">    0.04    0.04</time>
   <time name="diis">    0.17    0.17</time>
   <time name="orth">    0.00    0.00</time>
   <time name="total">    0.37    0.38</time>
   <energy>
    <i name="e_fr_energy">    -24.01027446 </i>
    <i name="e_wo_entrp">    -24.01027446 </i>
    <i name="e_0_energy">    -24.01027446 </i>
   </energy>
  </scstep>
  <scstep>
   <time name="diag">    0.04    0.04</time>
   <time name="diis">    0.16    0.17</time>
   <time name="orth">    0.00    0.00</time>
   <time name="total">    0.37    0.37</time>
   <energy>
    <i name="e_fr_energy">    -24.01027707 </i>
    <i name="e_wo_entrp">    -24.01027707 </i>
    <i name="e_0_energy">    -24.01027707 </i>
   </energy>
  </scstep>
  <scstep>
   <time name="diag">    0.04    0.04</time>
   <time name="diis">    0.13    0.14</time>
   <time name="orth">    0.00    0.00</time>
   <time name="total">    0.34    0.35</time>
   <energy>
    <i name="e_fr_energy">    -24.01027852 </i>
    <i name="e_wo_entrp">    -24.01027852 </i>
    <i name="e_0_energy">    -24.01027852 </i>
   </energy>
  </scstep>
  <scstep>
   <time name="diag">    0.04    0.04</time>
   <time name="diis">    0.13    0.14</time>
   <time name="orth">    0.00    0.00</time>
   <time name="total">    0.35    0.36</time>
   <energy>
    <i name="e_fr_energy">    -24.01028041 </i>
    <i name="e_wo_entrp">    -24.01028041 </i>
    <i name="e_0_energy">    -24.01028041 </i>
   </energy>
  </scstep>
  <scstep>
   <time name="diag">    0.04    0.04</time>
   <time name="diis">    0.13    0.13</time>
   <time name="orth">    0.00    0.00</time>
   <time name="total">    0.31    0.32</time>
   <energy>
    <i name="alphaZ">      0.22778709 </i>
    <i name="ewald">    128.12733373 </i>
    <i name="hartreedc">   -284.21419894 </i>
    <i name="XCdc">     24.59347835 </i>
    <i name="pawpsdc">    448.21848002 </i>
    <i name="pawaedc">   -448.99485165 </i>
    <i name="eentropy">     -0.00000000 </i>
    <i name="bandstr">    -89.01006370 </i>
    <i name="atom">    197.04175453 </i>
    <i name="e_fr_energy">    -24.01028057 </i>
    <i name="e_wo_entrp">    -24.01028057 </i>
    <i name="e_0_energy">    -24.01028057 </i>
   </energy>
  </scstep>
  <structure>
   <crystal>
    <varray name="basis" >
     <v>      10.05164042       0.00000000       0.00000000 </v>
     <v>      -0.29918550      10.29630911       0.00000000 </v>
     <v>      -0.18807208       0.13220272      10.27584584 </v>
    </varray>
    <i name="volume">   1063.49657680 </i>
    <varray name="rec_basis" >
     <v>       0.09948625       0.00289083       0.00178364 </v>
     <v>       0.00000000       0.09712218      -0.00124951 </v>
     <v>       0.00000000       0.00000000       0.09731559 </v>
    </varray>
   </crystal>
   <varray name="positions" >
    <v>       0.53774878       0.40761583       0.36185925 </v>
    <v>       0.39494904       0.48006370       0.43836897 </v>
    <v>       0.55193171       0.56449967       0.44292842 </v>
    <v>       0.52799245       0.41680306       0.53858263 </v>
    <v>       0.50336434       0.46630515       0.44532819 </v>
   </varray>
  </structure>
  <varray name="forces" >
   <v>      -0.29785460       0.43413701       0.57498861 </v>
   <v>       0.18537884      -0.19084796      -0.04775151 </v>
   <v>      -0.02071146      -0.42454070      -0.00091259 </v>
   <v>      -0.04795866       0.14081885      -0.29792323 </v>
   <v>       0.18066156       0.04017521      -0.22851170 </v>
  </varray>
  <varray name="stress" >
   <v>      -1.07017043       0.31706412       0.29301596 </v>
   <v>       0.31706412      -1.75223192      -0.31777665 </v>
   <v>       0.29301596      -0.31777666      -1.72476164 </v>
  </varray>
  <energy>
   <i name="e_fr_energy">    -24.01028057 </i>
   <i name="e_wo_entrp">    -24.01028057 </i>
   <i name="e_0_energy">     -0.00000000 </i>
   <i name="kinetic">      0.02848590 </i>
   <i name="lattice kinetic">      0.00000000 </i>
   <i name="nosepot">      0.00000000 </i>
   <i name="nosekinetic">      0.00000000 </i>
   <i name="total">    -23.98179467 </i>
  </energy>
  <time name="totalsc">    2.76    2.81</time>
 </calculation>
 <calculation>
  <scstep>
   <time name="dav">    0.17    0.17</time>
   <time name="total">    0.34    0.34</time>
   <energy>
    <i name="alphaZ">      0.22778709 </i>
    <i name="ewald">    129.41695618 </i>
    <i name="hartreedc">   -285.35851981 </i>
    <i name="XCdc">     24.65375004 </i>
    <i name="pawpsdc">    455.67314234 </i>
    <i name="pawaedc">   -456.45390766 </i>
    <i name="eentropy">     -0.00000000 </i>
    <i name="bandstr">    -89.22156941 </i>
    <i name="atom">    197.04175453 </i>
    <i name="e_fr_energy">    -24.02060671 </i>
    <i name="e_wo_entrp">    -24.02060671 </i>
    <i name="e_0_energy">    -24.02060671 </i>
   </energy>
  </scstep>
  <scstep>
   <time name="diag">    0.04    0.04</time>
   <time name="diis">    0.17    0.17</time>
   <time name="orth">    0.00    0.00</time>
   <time name="total">    0.38    0.39</time>
   <energy>
    <i name="e_fr_energy">    -24.02060978 </i>
    <i name="e_wo_entrp">    -24.02060978 </i>
    <i name="e_0_energy">    -24.02060978 </i>
   </energy>
  </scstep>
  <scstep>
   <time name="diag">    0.04    0.04</time>
   <time name="diis">    0.14    0.14</time>
   <time name="orth">    0.00    0.00</time>
   <time name="total">    0.41    0.41</time>
   <energy>
    <i name="e_fr_energy">    -24.02061196 </i>
    <i name="e_wo_entrp">    -24.02061196 </i>
    <i name="e_0_energy">    -24.02061196 </i>
   </energy>
  </scstep>
  <scstep>
   <time name="diag">    0.04    0.04</time>
   <time name="diis">    0.13    0.13</time>
   <time name="orth">    0.00    0.00</time>
   <time name="total">    0.34    0.34</time>
   <energy>
    <i name="e_fr_energy">    -24.02061562 </i>
    <i name="e_wo_entrp">    -24.02061562 </i>
    <i name="e_0_energy">    -24.02061562 </i>
   </energy>
  </scstep>
  <scstep>
   <time name="diag">    0.04    0.04</time>
   <time name="diis">    0.13    0.13</time>
   <time name="orth">    0.00    0.00</time>
   <time name="total">    0.34    0.34</time>
   <energy>
    <i name="e_fr_energy">    -24.02061740 </i>
    <i name="e_wo_entrp">    -24.02061740 </i>
    <i name="e_0_energy">    -24.02061740 </i>
   </energy>
  </scstep>
  <scstep>
   <time name="diag">    0.04    0.04</time>
   <time name="diis">    0.13    0.14</time>
   <time name="orth">    0.00    0.00</time>
   <time name="total">    0.35    0.35</time>
   <energy>
    <i name="e_fr_energy">    -24.02061921 </i>
    <i name="e_wo_entrp">    -24.02061921 </i>
    <i name="e_0_energy">    -24.02061921 </i>
   </energy>
  </scstep>
  <scstep>
   <time name="diag">    0.04    0.04</time>
   <time name="diis">    0.11    0.11</time>
   <time name="orth">    0.00    0.00</time>
   <time name="total">    0.31    0.31</time>
   <energy>
    <i name="alphaZ">      0.22778709 </i>
    <i name="ewald">    129.41695618 </i>
    <i name="hartreedc">   -285.35604740 </i>
    <i name="XCdc">     24.65374059 </i>
    <i name="pawpsdc">    455.67463717 </i>
    <i name="pawaedc">   -456.45542711 </i>
    <i name="eentropy">     -0.00000000 </i>
    <i name="bandstr">    -89.22402046 </i>
    <i name="atom">    197.04175453 </i>
    <i name="e_fr_energy">    -24.02061942 </i>
    <i name="e_wo_entrp">    -24.02061942 </i>
    <i name="e_0_energy">    -24.02061942 </i>
   </energy>
  </scstep>
  <structure>
   <crystal>
    <varray name="basis" >
     <v>      10.05164042       0.00000000       0.00000000 </v>
     <v>      -0.29918550      10.29630911       0.00000000 </v>
     <v>      -0.18807208       0.13220272      10.27584584 </v>
    </varray>
    <i name="volume">   1063.49657680 </i>
    <varray name="rec_basis" >
     <v>       0.09948625       0.00289083       0.00178364 </v>
     <v>       0.00000000       0.09712218      -0.00124951 </v>
     <v>       0.00000000       0.00000000       0.09731559 </v>
    </varray>
   </crystal>
   <varray name="positions" >
    <v>       0.53740155       0.40815727       0.36259580 </v>
    <v>       0.39519346       0.47986495       0.43832335 </v>
    <v>       0.55184535       0.56396456       0.44292874 </v>
    <v>       0.52792086       0.41699467       0.53819723 </v>
    <v>       0.50338605       0.46630521       0.44530273 </v>
   </varray>
  </structure>
  <varray name="forces" >
   <v>      -0.19291790       0.26492128       0.34395695 </v>
   <v>       0.10707625      -0.16798114      -0.04655930 </v>
   <v>       0.03495865      -0.26971480      -0.00249593 </v>
   <v>      -0.02162278       0.08070262      -0.18002179 </v>
   <v>       0.07196872       0.09184742      -0.11494722 </v>
  </varray>
  <varray name="stress" >
   <v>      -0.83672936       0.26638414       0.20058547 </v>
   <v>       0.26638414      -1.31193525      -0.19283653 </v>
   <v>       0.20058548      -0.19283653      -1.25888680 </v>
  </varray>
  <energy>
   <i name="e_fr_energy">    -24.02061942 </i>
   <i name="e_wo_entrp">    -24.02061942 </i>
   <i name="e_0_energy">     -0.00000000 </i>
   <i name="kinetic">      0.03862018 </i>
   <i name="lattice kinetic">      0.00000000 </i>
   <i name="nosepot">      0.00000000 </i>
   <i name="nosekinetic">      0.00000000 </i>
   <i name="total">    -23.98199924 </i>
  </energy>
  <time name="totalsc">    3.09    3.12</time>
 </calculation>
 <calculation>
  <scstep>
   <time name="dav">    0.16    0.16</time>
   <time name="total">    0.34    0.34</time>
   <energy>
    <i name="alphaZ">      0.22778709 </i>
    <i name="ewald">    130.86628784 </i>
    <i name="hartreedc">   -286.63243913 </i>
    <i name="XCdc">     24.72125256 </i>
    <i name="pawpsdc">    464.31861196 </i>
    <i name="pawaedc">   -465.10448951 </i>
    <i name="eentropy">     -0.00000000 </i>
    <i name="bandstr">    -89.46500697 </i>
    <i name="atom">    197.04175453 </i>
    <i name="e_fr_energy">    -24.02624163 </i>
    <i name="e_wo_entrp">    -24.02624163 </i>
    <i name="e_0_energy">    -24.02624163 </i>
   </energy>
  </scstep>
  <scstep>
   <time name="diag">    0.04    0.04</time>
   <time name="diis">    0.16    0.16</time>
   <time name="orth">    0.00    0.00</time>
   <time name="total">    0.39    0.39</time>
   <energy>
    <i name="e_fr_energy">    -24.02624791 </i>
    <i name="e_wo_entrp">    -24.02624791 </i>
    <i name="e_0_energy">    -24.02624791 </i>
   </energy>
  </scstep>
  <scstep>
   <time name="diag">    0.04    0.04</time>
   <time name="diis">    0.13    0.14</time>
   <time name="orth">    0.00    0.00</time>
   <time name="total">    0.35    0.35</time>
   <energy>
    <i name="e_fr_energy">    -24.02625059 </i>
    <i name="e_wo_entrp">    -24.02625059 </i>
    <i name="e_0_energy">    -24.02625059 </i>
   </energy>
  </scstep>
  <scstep>
   <time name="diag">    0.04    0.04</time>
   <time name="diis">    0.13    0.13</time>
   <time name="orth">    0.00    0.00</time>
   <time name="total">    0.35    0.35</time>
   <energy>
    <i name="e_fr_energy">    -24.02625655 </i>
    <i name="e_wo_entrp">    -24.02625655 </i>
    <i name="e_0_energy">    -24.02625655 </i>
   </energy>
  </scstep>
  <scstep>
   <time name="diag">    0.04    0.04</time>
   <time name="diis">    0.13    0.13</time>
   <time name="orth">    0.00    0.00</time>
   <time name="total">    0.35    0.36</time>
   <energy>
    <i name="e_fr_energy">    -24.02625933 </i>
    <i name="e_wo_entrp">    -24.02625933 </i>
    <i name="e_0_energy">    -24.02625933 </i>
   </energy>
  </scstep>
  <scstep>
   <time name="diag">    0.04    0.04</time>
   <time name="diis">    0.13    0.13</time>
   <time name="orth">    0.00    0.00</time>
   <time name="total">    0.35    0.35</time>
   <energy>
    <i name="e_fr_energy">    -24.02626402 </i>
    <i name="e_wo_entrp">    -24.02626402 </i>
    <i name="e_0_energy">    -24.02626402 </i>
   </energy>
  </scstep>
  <scstep>
   <time name="diag">    0.04    0.04</time>
   <time name="diis">    0.10    0.11</time>
   <time name="orth">    0.00    0.00</time>
   <time name="total">    0.30    0.31</time>
   <energy>
    <i name="alphaZ">      0.22778709 </i>
    <i name="ewald">    130.86628784 </i>
    <i name="hartreedc">   -286.63448479 </i>
    <i name="XCdc">     24.72132166 </i>
    <i name="pawpsdc">    464.22823481 </i>
    <i name="pawaedc">   -465.01405729 </i>
    <i name="eentropy">     -0.00000000 </i>
    <i name="bandstr">    -89.46310807 </i>
    <i name="atom">    197.04175453 </i>
    <i name="e_fr_energy">    -24.02626423 </i>
    <i name="e_wo_entrp">    -24.02626423 </i>
    <i name="e_0_energy">    -24.02626423 </i>
   </energy>
  </scstep>
  <structure>
   <crystal>
    <varray name="basis" >
     <v>      10.05164042       0.00000000       0.00000000 </v>
     <v>      -0.29918550      10.29630911       0.00000000 </v>
     <v>      -0.18807208       0.13220272      10.27584584 </v>
    </varray>
    <i name="volume">   1063.49657680 </i>
    <varray name="rec_basis" >
     <v>       0.09948625       0.00289083       0.00178364 </v>
     <v>       0.00000000       0.09712218      -0.00124951 </v>
     <v>       0.00000000       0.00000000       0.09731559 </v>
    </varray>
   </crystal>
   <varray name="positions" >
    <v>       0.53701136       0.40875974       0.36341308 </v>
    <v>       0.39546220       0.47962699       0.43826680 </v>
    <v>       0.55176549       0.56336627       0.44292848 </v>
    <v>       0.52784387       0.41720574       0.53776957 </v>
    <v>       0.50340922       0.46630711       0.44527502 </v>
   </varray>
  </structure>
  <varray name="forces" >
   <v>      -0.06889428       0.06484888       0.07101859 </v>
   <v>       0.01867297      -0.14113783      -0.04490456 </v>
   <v>       0.09806309      -0.09247684      -0.00433248 </v>
   <v>       0.00824079       0.01231944      -0.04633225 </v>
   <v>      -0.05655931       0.15631507       0.02451803 </v>
  </varray>
  <varray name="stress" >
   <v>      -0.57381787       0.20618723       0.09216609 </v>
   <v>       0.20618724      -0.81093956      -0.04517880 </v>
   <v>       0.09216609      -0.04517880      -0.72636722 </v>
  </varray>
  <energy>
   <i name="e_fr_energy">    -24.02626423 </i>
   <i name="e_wo_entrp">    -24.02626423 </i>
   <i name="e_0_energy">     -0.00000000 </i>
   <i name="kinetic">      0.04413588 </i>
   <i name="lattice kinetic">      0.00000000 </i>
   <i name="nosepot">      0.00000000 </i>
   <i name="nosekinetic">      0.00000000 </i>
   <i name="total">    -23.98212835 </i>
  </energy>
  <time name="totalsc">    3.21    3.50</time>
 </calculation>
 <calculation>
  <scstep>
   <time name="dav">    0.16    0.16</time>
   <time name="total">    0.33    0.33</time>
   <energy>
    <i name="alphaZ">      0.22778709 </i>
    <i name="ewald">    132.36907034 </i>
    <i name="hartreedc">   -287.95085608 </i>
    <i name="XCdc">     24.79094566 </i>
    <i name="pawpsdc">    473.39145474 </i>
    <i name="pawaedc">   -474.18254466 </i>
    <i name="eentropy">     -0.00000000 </i>
    <i name="bandstr">    -89.71298193 </i>
    <i name="atom">    197.04175453 </i>
    <i name="e_fr_energy">    -24.02537031 </i>
    <i name="e_wo_entrp">    -24.02537031 </i>
    <i name="e_0_energy">    -24.02537031 </i>
   </energy>
  </scstep>
  <scstep>
   <time name="diag">    0.04    0.04</time>
   <time name="diis">    0.16    0.16</time>
   <time name="orth">    0.00    0.00</time>
   <time name="total">    0.38    0.38</time>
   <energy>
    <i name="e_fr_energy">    -24.02537374 </i>
    <i name="e_wo_entrp">    -24.02537374 </i>
    <i name="e_0_energy">    -24.02537374 </i>
   </energy>
  </scstep>
  <scstep>
   <time name="diag">    0.04    0.04</time>
   <time name="diis">    0.13    0.13</time>
   <time name="orth">    0.00    0.00</time>
   <time name="total">    0.34    0.35</time>
   <energy>
    <i name="e_fr_energy">    -24.02537452 </i>
    <i name="e_wo_entrp">    -24.02537452 </i>
    <i name="e_0_energy">    -24.02537452 </i>
   </energy>
  </scstep>
  <scstep>
   <time name="diag">    0.04    0.04</time>
   <time name="diis">    0.13    0.13</time>
   <time name="orth">    0.00    0.00</time>
   <time name="total">    0.41    0.42</time>
   <energy>
    <i name="e_fr_energy">    -24.02537689 </i>
    <i name="e_wo_entrp">    -24.02537689 </i>
    <i name="e_0_energy">    -24.02537689 </i>
   </energy>
  </scstep>
  <scstep>
   <time name="diag">    0.05    0.05</time>
   <time name="diis">    0.13    0.13</time>
   <time name="orth">    0.00    0.00</time>
   <time name="total">    0.41    0.41</time>
   <energy>
    <i name="alphaZ">      0.22778709 </i>
    <i name="ewald">    132.36907034 </i>
    <i name="hartreedc">   -287.95414057 </i>
    <i name="XCdc">     24.79109105 </i>
    <i name="pawpsdc">    473.34171782 </i>
    <i name="pawaedc">   -474.13283522 </i>
    <i name="eentropy">     -0.00000000 </i>
    <i name="bandstr">    -89.70982219 </i>
    <i name="atom">    197.04175453 </i>
    <i name="e_fr_energy">    -24.02537715 </i>
    <i name="e_wo_entrp">    -24.02537715 </i>
    <i name="e_0_energy">    -24.02537715 </i>
   </energy>
  </scstep>
  <structure>
   <crystal>
    <varray name="basis" >
     <v>      10.05164042       0.00000000       0.00000000 </v>
     <v>      -0.29918550      10.29630911       0.00000000 </v>
     <v>      -0.18807208       0.13220272      10.27584584 </v>
    </varray>
    <i name="volume">   1063.49657680 </i>
    <varray name="rec_basis" >
     <v>       0.09948625       0.00289083       0.00178364 </v>
     <v>       0.00000000       0.09712218      -0.00124951 </v>
     <v>       0.00000000       0.00000000       0.09731559 </v>
    </varray>
   </crystal>
   <varray name="positions" >
    <v>       0.53660540       0.40937719       0.36424704 </v>
    <v>       0.39573426       0.47935610       0.43819971 </v>
    <v>       0.55170851       0.56274634       0.44292721 </v>
    <v>       0.52776875       0.41741983       0.53733103 </v>
    <v>       0.50343137       0.46631204       0.44524779 </v>
   </varray>
  </structure>
  <varray name="forces" >
   <v>       0.06657098      -0.15370649      -0.22667464 </v>
   <v>      -0.07333784      -0.11144174      -0.04262539 </v>
   <v>       0.16344626       0.09468800      -0.00627286 </v>
   <v>       0.03935431      -0.05940007       0.09331610 </v>
   <v>      -0.19629537       0.22963785       0.18199296 </v>
  </varray>
  <varray name="stress" >
   <v>      -0.29889897       0.13967187      -0.02519949 </v>
   <v>       0.13967187      -0.28317228       0.11561469 </v>
   <v>      -0.02519949       0.11561469      -0.16345618 </v>
  </varray>
  <energy>
   <i name="e_fr_energy">    -24.02537715 </i>
   <i name="e_wo_entrp">    -24.02537715 </i>
   <i name="e_0_energy">     -0.00000000 </i>
   <i name="kinetic">      0.04324311 </i>
   <i name="lattice kinetic">      0.00000000 </i>
   <i name="nosepot">      0.00000000 </i>
   <i name="nosekinetic">      0.00000000 </i>
   <i name="total">    -23.98213404 </i>
  </energy>
  <time name="totalsc">    2.52    2.55</time>
 </calculation>
 <calculation>
  <scstep>
   <time name="dav">    0.16    0.16</time>
   <time name="total">    0.32    0.33</time>
   <energy>
    <i name="alphaZ">      0.22778709 </i>
    <i name="ewald">    133.80501375 </i>
    <i name="hartreedc">   -289.21200835 </i>
    <i name="XCdc">     24.85762141 </i>
    <i name="pawpsdc">    482.31717867 </i>
    <i name="pawaedc">   -483.11352603 </i>
    <i name="eentropy">     -0.00000000 </i>
    <i name="bandstr">    -89.94191024 </i>
    <i name="atom">    197.04175453 </i>
    <i name="e_fr_energy">    -24.01808916 </i>
    <i name="e_wo_entrp">    -24.01808916 </i>
    <i name="e_0_energy">    -24.01808916 </i>
   </energy>
  </scstep>
  <scstep>
   <time name="diag">    0.04    0.04</time>
   <time name="diis">    0.16    0.17</time>
   <time name="orth">    0.00    0.00</time>
   <time name="total">    0.37    0.38</time>
   <energy>
    <i name="e_fr_energy">    -24.01809194 </i>
    <i name="e_wo_entrp">    -24.01809194 </i>
    <i name="e_0_energy">    -24.01809194 </i>
   </energy>
  </scstep>
  <scstep>
   <time name="diag">    0.04    0.04</time>
   <time name="diis">    0.13    0.14</time>
   <time name="orth">    0.00    0.00</time>
   <time name="total">    0.34    0.35</time>
   <energy>
    <i name="e_fr_energy">    -24.01809208 </i>
    <i name="e_wo_entrp">    -24.01809208 </i>
    <i name="e_0_energy">    -24.01809208 </i>
   </energy>
  </scstep>
  <scstep>
   <time name="diag">    0.04    0.04</time>
   <time name="diis">    0.13    0.14</time>
   <time name="orth">    0.00    0.00</time>
   <time name="total">    0.31    0.32</time>
   <energy>
    <i name="alphaZ">      0.22778709 </i>
    <i name="ewald">    133.80501375 </i>
    <i name="hartreedc">   -289.20744433 </i>
    <i name="XCdc">     24.85745151 </i>
    <i name="pawpsdc">    482.25777159 </i>
    <i name="pawaedc">   -483.05401379 </i>
    <i name="eentropy">     -0.00000000 </i>
    <i name="bandstr">    -89.94641259 </i>
    <i name="atom">    197.04175453 </i>
    <i name="e_fr_energy">    -24.01809225 </i>
    <i name="e_wo_entrp">    -24.01809225 </i>
    <i name="e_0_energy">    -24.01809225 </i>
   </energy>
  </scstep>
  <structure>
   <crystal>
    <varray name="basis" >
     <v>      10.05164042       0.00000000       0.00000000 </v>
     <v>      -0.29918550      10.29630911       0.00000000 </v>
     <v>      -0.18807208       0.13220272      10.27584584 </v>
    </varray>
    <i name="volume">   1063.49657680 </i>
    <varray name="rec_basis" >
     <v>       0.09948625       0.00289083       0.00178364 </v>
     <v>       0.00000000       0.09712218      -0.00124951 </v>
     <v>       0.00000000       0.00000000       0.09731559 </v>
    </varray>
   </crystal>
   <varray name="positions" >
    <v>       0.53621337       0.40995932       0.36502779 </v>
    <v>       0.39598776       0.47905923       0.43812262 </v>
    <v>       0.55169139       0.56214861       0.44292446 </v>
    <v>       0.52770307       0.41761973       0.53691441 </v>
    <v>       0.50344979       0.46632141       0.44522412 </v>
   </varray>
  </structure>
  <varray name="forces" >
   <v>       0.20241955      -0.37259540      -0.52402049 </v>
   <v>      -0.16230106      -0.08010205      -0.03962238 </v>
   <v>       0.22509419       0.27721264      -0.00822421 </v>
   <v>       0.06928601      -0.12902380       0.22808580 </v>
   <v>      -0.33469176       0.30452720       0.34340470 </v>
  </varray>
  <varray name="stress" >
   <v>      -0.03339496       0.07107260      -0.14160842 </v>
   <v>       0.07107260       0.22949947       0.27510199 </v>
   <v>      -0.14160842       0.27510199       0.38378215 </v>
  </varray>
  <energy>
   <i name="e_fr_energy">    -24.01809225 </i>
   <i name="e_wo_entrp">    -24.01809225 </i>
   <i name="e_0_energy">     -0.00000000 </i>
   <i name="kinetic">      0.03609323 </i>
   <i name="lattice kinetic">      0.00000000 </i>
   <i name="nosepot">      0.00000000 </i>
   <i name="nosekinetic">      0.00000000 </i>
   <i name="total">    -23.98199902 </i>
  </energy>
  <time name="totalsc">    1.97    2.02</time>
 </calculation>
 <calculation>
  <scstep>
   <time name="dav">    0.16    0.16</time>
   <time name="total">    0.33    0.34</time>
   <energy>
    <i name="alphaZ">      0.22778709 </i>
    <i name="ewald">    135.04906196 </i>
    <i name="hartreedc">   -290.29458315 </i>
    <i name="XCdc">     24.91498308 </i>
    <i name="pawpsdc">    490.37807573 </i>
    <i name="pawaedc">   -491.17892063 </i>
    <i name="eentropy">     -0.00000000 </i>
    <i name="bandstr">    -90.14489785 </i>
    <i name="atom">    197.04175453 </i>
    <i name="e_fr_energy">    -24.00673924 </i>
    <i name="e_wo_entrp">    -24.00673924 </i>
    <i name="e_0_energy">    -24.00673924 </i>
   </energy>
  </scstep>
  <scstep>
   <time name="diag">    0.04    0.04</time>
   <time name="diis">    0.16    0.17</time>
   <time name="orth">    0.00    0.00</time>
   <time name="total">    0.37    0.39</time>
   <energy>
    <i name="e_fr_energy">    -24.00674190 </i>
    <i name="e_wo_entrp">    -24.00674190 </i>
    <i name="e_0_energy">    -24.00674190 </i>
   </energy>
  </scstep>
  <scstep>
   <time name="diag">    0.04    0.04</time>
   <time name="diis">    0.13    0.14</time>
   <time name="orth">    0.00    0.00</time>
   <time name="total">    0.34    0.35</time>
   <energy>
    <i name="e_fr_energy">    -24.00674189 </i>
    <i name="e_wo_entrp">    -24.00674189 </i>
    <i name="e_0_energy">    -24.00674189 </i>
   </energy>
  </scstep>
  <scstep>
   <time name="diag">    0.04    0.04</time>
   <time name="diis">    0.13    0.14</time>
   <time name="orth">    0.00    0.00</time>
   <time name="total">    0.44    0.45</time>
   <energy>
    <i name="alphaZ">      0.22778709 </i>
    <i name="ewald">    135.04906196 </i>
    <i name="hartreedc">   -290.29000636 </i>
    <i name="XCdc">     24.91483267 </i>
    <i name="pawpsdc">    490.13921381 </i>
    <i name="pawaedc">   -490.93997417 </i>
    <i name="eentropy">     -0.00000000 </i>
    <i name="bandstr">    -90.14941210 </i>
    <i name="atom">    197.04175453 </i>
    <i name="e_fr_energy">    -24.00674257 </i>
    <i name="e_wo_entrp">    -24.00674257 </i>
    <i name="e_0_energy">    -24.00674257 </i>
   </energy>
  </scstep>
  <structure>
   <crystal>
    <varray name="basis" >
     <v>      10.05164042       0.00000000       0.00000000 </v>
     <v>      -0.29918550      10.29630911       0.00000000 </v>
     <v>      -0.18807208       0.13220272      10.27584584 </v>
    </varray>
    <i name="volume">   1063.49657680 </i>
    <varray name="rec_basis" >
     <v>       0.09948625       0.00289083       0.00178364 </v>
     <v>       0.00000000       0.09712218      -0.00124951 </v>
     <v>       0.00000000       0.00000000       0.09731559 </v>
    </varray>
   </crystal>
   <varray name="positions" >
    <v>       0.53586507       0.41045574       0.36568554 </v>
    <v>       0.39620158       0.47874372       0.43803624 </v>
    <v>       0.55173019       0.56161585       0.44291979 </v>
    <v>       0.52765410       0.41778871       0.53655132 </v>
    <v>       0.50346184       0.46633664       0.44520717 </v>
   </varray>
  </structure>
  <varray name="forces" >
   <v>       0.32484647      -0.56899423      -0.78943876 </v>
   <v>      -0.24159560      -0.04841712      -0.03586835 </v>
   <v>       0.27645417       0.43919879      -0.01012389 </v>
   <v>       0.09550114      -0.19094279       0.34655302 </v>
   <v>      -0.45523486       0.36910382       0.48848811 </v>
  </varray>
  <varray name="stress" >
   <v>       0.19898476       0.00585494      -0.24511808 </v>
   <v>       0.00585494       0.68036460       0.41544577 </v>
   <v>      -0.24511808       0.41544576       0.86220596 </v>
  </varray>
  <energy>
   <i name="e_fr_energy">    -24.00674257 </i>
   <i name="e_wo_entrp">    -24.00674257 </i>
   <i name="e_0_energy">     -0.00000000 </i>
   <i name="kinetic">      0.02498860 </i>
   <i name="lattice kinetic">      0.00000000 </i>
   <i name="nosepot">      0.00000000 </i>
   <i name="nosekinetic">      0.00000000 </i>
   <i name="total">    -23.98175397 </i>
  </energy>
  <time name="totalsc">    2.11    2.16</time>
 </calculation>
 <calculation>
  <scstep>
   <time name="dav">    0.16    0.16</time>
   <time name="total">    0.33    0.34</time>
   <energy>
    <i name="alphaZ">      0.22778709 </i>
    <i name="ewald">    135.98454672 </i>
    <i name="hartreedc">   -291.10412128 </i>
    <i name="XCdc">     24.95799414 </i>
    <i name="pawpsdc">    496.21401019 </i>
    <i name="pawaedc">   -497.01830038 </i>
    <i name="eentropy">     -0.00000000 </i>
    <i name="bandstr">    -90.29895843 </i>
    <i name="atom">    197.04175453 </i>
    <i name="e_fr_energy">    -23.99528742 </i>
    <i name="e_wo_entrp">    -23.99528742 </i>
    <i name="e_0_energy">    -23.99528742 </i>
   </energy>
  </scstep>
  <scstep>
   <time name="diag">    0.04    0.04</time>
   <time name="diis">    0.16    0.17</time>
   <time name="orth">    0.00    0.00</time>
   <time name="total">    0.37    0.38</time>
   <energy>
    <i name="e_fr_energy">    -23.99528922 </i>
    <i name="e_wo_entrp">    -23.99528922 </i>
    <i name="e_0_energy">    -23.99528922 </i>
   </energy>
  </scstep>
  <scstep>
   <time name="diag">    0.04    0.04</time>
   <time name="diis">    0.13    0.14</time>
   <time name="orth">    0.00    0.00</time>
   <time name="total">    0.34    0.35</time>
   <energy>
    <i name="e_fr_energy">    -23.99528935 </i>
    <i name="e_wo_entrp">    -23.99528935 </i>
    <i name="e_0_energy">    -23.99528935 </i>
   </energy>
  </scstep>
  <scstep>
   <time name="diag">    0.04    0.04</time>
   <time name="diis">    0.13    0.13</time>
   <time name="orth">    0.00    0.00</time>
   <time name="total">    0.31    0.32</time>
   <energy>
    <i name="alphaZ">      0.22778709 </i>
    <i name="ewald">    135.98454672 </i>
    <i name="hartreedc">   -291.10169938 </i>
    <i name="XCdc">     24.95789204 </i>
    <i name="pawpsdc">    496.13525390 </i>
    <i name="pawaedc">   -496.93945875 </i>
    <i name="eentropy">     -0.00000000 </i>
    <i name="bandstr">    -90.30136578 </i>
    <i name="atom">    197.04175453 </i>
    <i name="e_fr_energy">    -23.99528962 </i>
    <i name="e_wo_entrp">    -23.99528962 </i>
    <i name="e_0_energy">    -23.99528962 </i>
   </energy>
  </scstep>
  <structure>
   <crystal>
    <varray name="basis" >
     <v>      10.05164042       0.00000000       0.00000000 </v>
     <v>      -0.29918550      10.29630911       0.00000000 </v>
     <v>      -0.18807208       0.13220272      10.27584584 </v>
    </varray>
    <i name="volume">   1063.49657680 </i>
    <varray name="rec_basis" >
     <v>       0.09948625       0.00289083       0.00178364 </v>
     <v>       0.00000000       0.09712218      -0.00124951 </v>
     <v>       0.00000000       0.00000000       0.09731559 </v>
    </varray>
   </crystal>
   <varray name="positions" >
    <v>       0.53558736       0.41082124       0.36615798 </v>
    <v>       0.39635694       0.47841697       0.43794144 </v>
    <v>       0.55183835       0.56118601       0.44291275 </v>
    <v>       0.52762821       0.41791192       0.53626960 </v>
    <v>       0.50346517       0.46635894       0.44519977 </v>
   </varray>
  </structure>
  <varray name="forces" >
   <v>       0.41916386      -0.71851177      -0.98921051 </v>
   <v>      -0.30468617      -0.01755800      -0.03122958 </v>
   <v>       0.31088418       0.56526252      -0.01185884 </v>
   <v>       0.11541223      -0.23947464       0.43769957 </v>
   <v>      -0.54099797       0.41088454       0.59469233 </v>
  </varray>
  <varray name="stress" >
   <v>       0.37686015      -0.05067232      -0.32329793 </v>
   <v>      -0.05067232       1.02552134       0.51752867 </v>
   <v>      -0.32329793       0.51752866       1.22081173 </v>
  </varray>
  <energy>
   <i name="e_fr_energy">    -23.99528962 </i>
   <i name="e_wo_entrp">    -23.99528962 </i>
   <i name="e_0_energy">     -0.00000000 </i>
   <i name="kinetic">      0.01380036 </i>
   <i name="lattice kinetic">      0.00000000 </i>
   <i name="nosepot">      0.00000000 </i>
   <i name="nosekinetic">      0.00000000 </i>
   <i name="total">    -23.98148926 </i>
  </energy>
  <dos>
   <i name="efermi">     -8.31509828 </i>
   <total>
    <array>
     <dimension dim="1">gridpoints</dimension>
     <dimension dim="2">spin</dimension>
     <field>energy</field>
     <field>total</field>
     <field>integrated</field>
     <set>
      <set comment="spin 1">
       <r>   -19.0405     0.0000     0.0000 </r>
       <r>   -18.9680     0.0000     0.0000 </r>
       <r>   -18.8955     0.0000     0.0000 </r>
       <r>   -18.8230     0.0000     0.0000 </r>
       <r>   -18.7506     0.0000     0.0000 </r>
       <r>   -18.6781     0.0000     0.0000 </r>
       <r>   -18.6056     0.0000     0.0000 </r>
       <r>   -18.5332     0.0000     0.0000 </r>
       <r>   -18.4607     0.0000     0.0000 </r>
       <r>   -18.3882     0.0000     0.0000 </r>
       <r>   -18.3158     0.0000     0.0000 </r>
       <r>   -18.2433     0.0000     0.0000 </r>
       <r>   -18.1708     0.0000     0.0000 </r>
       <r>   -18.0984     0.0000     0.0000 </r>
       <r>   -18.0259     0.0000     0.0000 </r>
       <r>   -17.9534     0.0000     0.0000 </r>
       <r>   -17.8810     0.0000     0.0000 </r>
       <r>   -17.8085     0.0000     0.0000 </r>
       <r>   -17.7360     0.0001     0.0000 </r>
       <r>   -17.6636     0.0009     0.0001 </r>
       <r>   -17.5911     0.0088     0.0007 </r>
       <r>   -17.5186     0.0636     0.0053 </r>
       <r>   -17.4462     0.3564     0.0309 </r>
       <r>   -17.3737     1.5511     0.1425 </r>
       <r>   -17.3012     5.2419     0.5194 </r>
       <r>   -17.2287    13.7601     1.5088 </r>
       <r>   -17.1563    28.0675     3.5265 </r>
       <r>   -17.0838    44.5039     6.7252 </r>
       <r>   -17.0113    54.8724    10.6683 </r>
       <r>   -16.9389    52.6283    14.4493 </r>
       <r>   -16.8664    39.2766    17.2703 </r>
       <r>   -16.7939    22.8154    18.9087 </r>
       <r>   -16.7215    10.3187    19.6494 </r>
       <r>   -16.6490     3.6344    19.9103 </r>
       <r>   -16.5765     0.9971    19.9818 </r>
       <r>   -16.5041     0.2131    19.9971 </r>
       <r>   -16.4316     0.0355    19.9996 </r>
       <r>   -16.3591     0.0046    20.0000 </r>
       <r>   -16.2867     0.0005    20.0000 </r>
       <r>   -16.2142     0.0000    20.0000 </r>
       <r>   -16.1417     0.0000    20.0000 </r>
       <r>   -16.0693     0.0000    20.0000 </r>
       <r>   -15.9968     0.0000    20.0000 </r>
       <r>   -15.9243     0.0000    20.0000 </r>
       <r>   -15.8519     0.0000    20.0000 </r>
       <r>   -15.7794     0.0000    20.0000 </r>
       <r>   -15.7069     0.0000    20.0000 </r>
       <r>   -15.6344     0.0000    20.0000 </r>
       <r>   -15.5620     0.0000    20.0000 </r>
       <r>   -15.4895     0.0000    20.0000 </r>
       <r>   -15.4170     0.0000    20.0000 </r>
       <r>   -15.3446     0.0000    20.0000 </r>
       <r>   -15.2721     0.0000    20.0000 </r>
       <r>   -15.1996     0.0000    20.0000 </r>
       <r>   -15.1272     0.0000    20.0000 </r>
       <r>   -15.0547     0.0000    20.0000 </r>
       <r>   -14.9822     0.0000    20.0000 </r>
       <r>   -14.9098     0.0000    20.0000 </r>
       <r>   -14.8373     0.0000    20.0000 </r>
       <r>   -14.7648     0.0000    20.0000 </r>
       <r>   -14.6924     0.0000    20.0000 </r>
       <r>   -14.6199     0.0000    20.0000 </r>
       <r>   -14.5474     0.0000    20.0000 </r>
       <r>   -14.4750     0.0000    20.0000 </r>
       <r>   -14.4025     0.0000    20.0000 </r>
       <r>   -14.3300     0.0000    20.0000 </r>
       <r>   -14.2576     0.0000    20.0000 </r>
       <r>   -14.1851     0.0000    20.0000 </r>
       <r>   -14.1126     0.0000    20.0000 </r>
       <r>   -14.0402     0.0000    20.0000 </r>
       <r>   -13.9677     0.0000    20.0000 </r>
       <r>   -13.8952     0.0000    20.0000 </r>
       <r>   -13.8227     0.0000    20.0000 </r>
       <r>   -13.7503     0.0000    20.0000 </r>
       <r>   -13.6778     0.0000    20.0000 </r>
       <r>   -13.6053     0.0000    20.0000 </r>
       <r>   -13.5329     0.0000    20.0000 </r>
       <r>   -13.4604     0.0000    20.0000 </r>
       <r>   -13.3879     0.0000    20.0000 </r>
       <r>   -13.3155     0.0000    20.0000 </r>
       <r>   -13.2430     0.0000    20.0000 </r>
       <r>   -13.1705     0.0000    20.0000 </r>
       <r>   -13.0981     0.0000    20.0000 </r>
       <r>   -13.0256     0.0000    20.0000 </r>
       <r>   -12.9531     0.0000    20.0000 </r>
       <r>   -12.8807     0.0000    20.0000 </r>
       <r>   -12.8082     0.0000    20.0000 </r>
       <r>   -12.7357     0.0000    20.0000 </r>
       <r>   -12.6633     0.0000    20.0000 </r>
       <r>   -12.5908     0.0000    20.0000 </r>
       <r>   -12.5183     0.0000    20.0000 </r>
       <r>   -12.4459     0.0000    20.0000 </r>
       <r>   -12.3734     0.0000    20.0000 </r>
       <r>   -12.3009     0.0000    20.0000 </r>
       <r>   -12.2284     0.0000    20.0000 </r>
       <r>   -12.1560     0.0000    20.0000 </r>
       <r>   -12.0835     0.0000    20.0000 </r>
       <r>   -12.0110     0.0000    20.0000 </r>
       <r>   -11.9386     0.0000    20.0000 </r>
       <r>   -11.8661     0.0000    20.0000 </r>
       <r>   -11.7936     0.0000    20.0000 </r>
       <r>   -11.7212     0.0000    20.0000 </r>
       <r>   -11.6487     0.0000    20.0000 </r>
       <r>   -11.5762     0.0000    20.0000 </r>
       <r>   -11.5038     0.0000    20.0000 </r>
       <r>   -11.4313     0.0000    20.0000 </r>
       <r>   -11.3588     0.0000    20.0000 </r>
       <r>   -11.2864     0.0000    20.0000 </r>
       <r>   -11.2139     0.0000    20.0000 </r>
       <r>   -11.1414     0.0000    20.0000 </r>
       <r>   -11.0690     0.0000    20.0000 </r>
       <r>   -10.9965     0.0000    20.0000 </r>
       <r>   -10.9240     0.0000    20.0000 </r>
       <r>   -10.8516     0.0000    20.0000 </r>
       <r>   -10.7791     0.0000    20.0000 </r>
       <r>   -10.7066     0.0000    20.0000 </r>
       <r>   -10.6341     0.0000    20.0000 </r>
       <r>   -10.5617     0.0000    20.0000 </r>
       <r>   -10.4892     0.0000    20.0000 </r>
       <r>   -10.4167     0.0000    20.0000 </r>
       <r>   -10.3443     0.0000    20.0000 </r>
       <r>   -10.2718     0.0000    20.0000 </r>
       <r>   -10.1993     0.0000    20.0000 </r>
       <r>   -10.1269     0.0005    20.0000 </r>
       <r>   -10.0544     0.0046    20.0004 </r>
       <r>    -9.9819     0.0369    20.0030 </r>
       <r>    -9.9095     0.2308    20.0196 </r>
       <r>    -9.8370     1.1353    20.1011 </r>
       <r>    -9.7645     4.4052    20.4175 </r>
       <r>    -9.6921    13.5454    21.3905 </r>
       <r>    -9.6196    33.2162    23.7768 </r>
       <r>    -9.5471    65.4726    28.4808 </r>
       <r>    -9.4747   104.6611    36.0011 </r>
       <r>    -9.4022   136.8719    45.8363 </r>
       <r>    -9.3297   147.4087    56.4289 </r>
       <r>    -9.2573   131.0803    65.8478 </r>
       <r>    -9.1848    96.0179    72.7469 </r>
       <r>    -9.1123    57.5644    76.8826 </r>
       <r>    -9.0399    27.9992    78.8939 </r>
       <r>    -8.9674    10.9497    79.6803 </r>
       <r>    -8.8949     3.4153    79.9255 </r>
       <r>    -8.8224     0.8441    79.9861 </r>
       <r>    -8.7500     0.1645    79.9980 </r>
       <r>    -8.6775     0.0252    79.9998 </r>
       <r>    -8.6050     0.0030    80.0000 </r>
       <r>    -8.5326     0.0003    80.0000 </r>
       <r>    -8.4601     0.0000    80.0000 </r>
       <r>    -8.3876     0.0000    80.0000 </r>
       <r>    -8.3152     0.0000    80.0000 </r>
       <r>    -8.2427     0.0000    80.0000 </r>
       <r>    -8.1702     0.0000    80.0000 </r>
       <r>    -8.0978     0.0000    80.0000 </r>
       <r>    -8.0253     0.0000    80.0000 </r>
       <r>    -7.9528     0.0000    80.0000 </r>
       <r>    -7.8804     0.0000    80.0000 </r>
       <r>    -7.8079     0.0000    80.0000 </r>
       <r>    -7.7354     0.0000    80.0000 </r>
       <r>    -7.6630     0.0000    80.0000 </r>
       <r>    -7.5905     0.0000    80.0000 </r>
       <r>    -7.5180     0.0000    80.0000 </r>
       <r>    -7.4456     0.0000    80.0000 </r>
       <r>    -7.3731     0.0000    80.0000 </r>
       <r>    -7.3006     0.0000    80.0000 </r>
       <r>    -7.2281     0.0000    80.0000 </r>
       <r>    -7.1557     0.0000    80.0000 </r>
       <r>    -7.0832     0.0000    80.0000 </r>
       <r>    -7.0107     0.0000    80.0000 </r>
       <r>    -6.9383     0.0000    80.0000 </r>
       <r>    -6.8658     0.0000    80.0000 </r>
       <r>    -6.7933     0.0000    80.0000 </r>
       <r>    -6.7209     0.0000    80.0000 </r>
       <r>    -6.6484     0.0000    80.0000 </r>
       <r>    -6.5759     0.0000    80.0000 </r>
       <r>    -6.5035     0.0000    80.0000 </r>
       <r>    -6.4310     0.0000    80.0000 </r>
       <r>    -6.3585     0.0000    80.0000 </r>
       <r>    -6.2861     0.0000    80.0000 </r>
       <r>    -6.2136     0.0000    80.0000 </r>
       <r>    -6.1411     0.0000    80.0000 </r>
       <r>    -6.0687     0.0000    80.0000 </r>
       <r>    -5.9962     0.0000    80.0000 </r>
       <r>    -5.9237     0.0000    80.0000 </r>
       <r>    -5.8513     0.0000    80.0000 </r>
       <r>    -5.7788     0.0000    80.0000 </r>
       <r>    -5.7063     0.0000    80.0000 </r>
       <r>    -5.6338     0.0000    80.0000 </r>
       <r>    -5.5614     0.0000    80.0000 </r>
       <r>    -5.4889     0.0000    80.0000 </r>
       <r>    -5.4164     0.0000    80.0000 </r>
       <r>    -5.3440     0.0000    80.0000 </r>
       <r>    -5.2715     0.0000    80.0000 </r>
       <r>    -5.1990     0.0000    80.0000 </r>
       <r>    -5.1266     0.0000    80.0000 </r>
       <r>    -5.0541     0.0000    80.0000 </r>
       <r>    -4.9816     0.0000    80.0000 </r>
       <r>    -4.9092     0.0000    80.0000 </r>
       <r>    -4.8367     0.0000    80.0000 </r>
       <r>    -4.7642     0.0000    80.0000 </r>
       <r>    -4.6918     0.0000    80.0000 </r>
       <r>    -4.6193     0.0000    80.0000 </r>
       <r>    -4.5468     0.0000    80.0000 </r>
       <r>    -4.4744     0.0000    80.0000 </r>
       <r>    -4.4019     0.0000    80.0000 </r>
       <r>    -4.3294     0.0000    80.0000 </r>
       <r>    -4.2570     0.0000    80.0000 </r>
       <r>    -4.1845     0.0000    80.0000 </r>
       <r>    -4.1120     0.0000    80.0000 </r>
       <r>    -4.0396     0.0000    80.0000 </r>
       <r>    -3.9671     0.0000    80.0000 </r>
       <r>    -3.8946     0.0000    80.0000 </r>
       <r>    -3.8221     0.0000    80.0000 </r>
       <r>    -3.7497     0.0000    80.0000 </r>
       <r>    -3.6772     0.0000    80.0000 </r>
       <r>    -3.6047     0.0000    80.0000 </r>
       <r>    -3.5323     0.0000    80.0000 </r>
       <r>    -3.4598     0.0000    80.0000 </r>
[...]
       <r>     0.2361     6.0533   100.5843 </r>
       <r>     0.3085    16.9933   101.8036 </r>
       <r>     0.3810    39.0263   104.6048 </r>
       <r>     0.4535    73.3020   109.8680 </r>
       <r>     0.5259   113.1877   117.9977 </r>
       <r>     0.5984   143.8307   128.3312 </r>
       <r>     0.6709   149.8148   139.0974 </r>
       <r>     0.7433   126.9372   148.2214 </r>
       <r>     0.8158    86.6930   154.4541 </r>
       <r>     0.8883    47.3088   157.8558 </r>
       <r>     0.9607    20.4779   159.3286 </r>
       <r>     1.0332     6.9915   159.8315 </r>
       <r>     1.1057     1.8749   159.9664 </r>
       <r>     1.1782     0.3938   159.9947 </r>
       <r>     1.2506     0.0646   159.9993 </r>
       <r>     1.3231     0.0083   159.9999 </r>
       <r>     1.3956     0.0008   160.0000 </r>
       <r>     1.4680     0.0001   160.0000 </r>
       <r>     1.5405     0.0000   160.0000 </r>
       <r>     1.6130     0.0000   160.0000 </r>
       <r>     1.6854     0.0000   160.0000 </r>
       <r>     1.7579     0.0000   160.0000 </r>
       <r>     1.8304     0.0000   160.0000 </r>
       <r>     1.9028     0.0000   160.0000 </r>
       <r>     1.9753     0.0000   160.0000 </r>
       <r>     2.0478     0.0000   160.0000 </r>
       <r>     2.1202     0.0000   160.0000 </r>
       <r>     2.1927     0.0000   160.0000 </r>
       <r>     2.2652     0.0000   160.0000 </r>
       <r>     2.3376     0.0000   160.0000 </r>
       <r>     2.4101     0.0000   160.0000 </r>
       <r>     2.4826     0.0000   160.0000 </r>
       <r>     2.5550     0.0000   160.0000 </r>
       <r>     2.6275     0.0000   160.0000 </r>
       <r>     2.7000     0.0000   160.0000 </r>
      </set>
     </set>
    </array>
   </total>
  </dos>
  <time name="totalsc">    2.18    2.23</time>
  <eigenvalues>
   <array>
    <dimension dim="1">band</dimension>
    <dimension dim="2">kpoint</dimension>
    <dimension dim="3">spin</dimension>
    <field>eigene</field>
    <field>occ</field>
    <set>
     <set comment="spin 1">
      <set comment="kpoint 1">
       <r>  -17.0573    1.0000 </r>
       <r>   -9.4647    1.0000 </r>
       <r>   -9.3575    1.0000 </r>
       <r>   -9.3133    1.0000 </r>
       <r>   -0.2865    0.0000 </r>
       <r>    0.5253    0.0000 </r>
       <r>    0.6527    0.0000 </r>
       <r>    0.6769    0.0000 </r>
      </set>
      <set comment="kpoint 2">
       <r>  -17.0573    1.0000 </r>
       <r>   -9.4646    1.0000 </r>
       <r>   -9.3575    1.0000 </r>
       <r>   -9.3132    1.0000 </r>
       <r>   -0.2960    0.0000 </r>
       <r>    0.5433    0.0000 </r>
       <r>    0.6676    0.0000 </r>
       <r>    0.7042    0.0000 </r>
      </set>
      <set comment="kpoint 3">
       <r>  -17.0573    1.0000 </r>
       <r>   -9.4646    1.0000 </r>
       <r>   -9.3575    1.0000 </r>
       <r>   -9.3133    1.0000 </r>
       <r>   -0.2893    0.0000 </r>
       <r>    0.5221    0.0000 </r>
       <r>    0.6579    0.0000 </r>
       <r>    0.6933    0.0000 </r>
      </set>
      <set comment="kpoint 4">
       <r>  -17.0573    1.0000 </r>
       <r>   -9.4646    1.0000 </r>
       <r>   -9.3576    1.0000 </r>
       <r>   -9.3133    1.0000 </r>
       <r>   -0.2875    0.0000 </r>
       <r>    0.5231    0.0000 </r>
       <r>    0.6587    0.0000 </r>
       <r>    0.6797    0.0000 </r>
      </set>
     </set>
    </set>
   </array>
  </eigenvalues>
  <separator name="orbital magnetization" >
   <v name="MAGDIPOLOUT">      0.00000000      0.00000000      0.00000000</v>
  </separator>
  <dos>
   <i name="efermi">     -8.39401777 </i>
   <total>
    <array>
     <dimension dim="1">gridpoints</dimension>
     <dimension dim="2">spin</dimension>
     <field>energy</field>
     <field>total</field>
     <field>integrated</field>
     <set>
      <set comment="spin 1">
       <r>   -19.0573     0.0000     0.0000 </r>
       <r>   -18.9848     0.0000     0.0000 </r>
       <r>   -18.9122     0.0000     0.0000 </r>
       <r>   -18.8397     0.0000     0.0000 </r>
       <r>   -18.7672     0.0000     0.0000 </r>
       <r>   -18.6946     0.0000     0.0000 </r>
       <r>   -18.6221     0.0000     0.0000 </r>
       <r>   -18.5495     0.0000     0.0000 </r>
       <r>   -18.4770     0.0000     0.0000 </r>
       <r>   -18.4045     0.0000     0.0000 </r>
       <r>   -18.3319     0.0000     0.0000 </r>
       <r>   -18.2594     0.0000     0.0000 </r>
       <r>   -18.1869     0.0000     0.0000 </r>
       <r>   -18.1143     0.0000     0.0000 </r>
       <r>   -18.0418     0.0000     0.0000 </r>
       <r>   -17.9692     0.0000     0.0000 </r>
       <r>   -17.8967     0.0000     0.0000 </r>
       <r>   -17.8242     0.0000     0.0000 </r>
       <r>   -17.7516     0.0000     0.0000 </r>
       <r>   -17.6791     0.0001     0.0000 </r>
       <r>   -17.6065     0.0013     0.0001 </r>
       <r>   -17.5340     0.0089     0.0007 </r>
       <r>   -17.4615     0.0485     0.0043 </r>
       <r>   -17.3889     0.2035     0.0190 </r>
       <r>   -17.3164     0.6606     0.0669 </r>
       <r>   -17.2439     1.6568     0.1871 </r>
       <r>   -17.1713     3.2121     0.4201 </r>
       <r>   -17.0988     4.8138     0.7693 </r>
       <r>   -17.0262     5.5770     1.1739 </r>
       <r>   -16.9537     4.9950     1.5362 </r>
       <r>   -16.8812     3.4584     1.7871 </r>
       <r>   -16.8086     1.8511     1.9213 </r>
       <r>   -16.7361     0.7658     1.9769 </r>
       <r>   -16.6635     0.2449     1.9946 </r>
       <r>   -16.5910     0.0605     1.9990 </r>
       <r>   -16.5185     0.0115     1.9999 </r>
       <r>   -16.4459     0.0017     2.0000 </r>
       <r>   -16.3734     0.0002     2.0000 </r>
       <r>   -16.3009     0.0000     2.0000 </r>
       <r>   -16.2283     0.0000     2.0000 </r>
       <r>   -16.1558     0.0000     2.0000 </r>
       <r>   -16.0832     0.0000     2.0000 </r>
       <r>   -16.0107     0.0000     2.0000 </r>
       <r>   -15.9382     0.0000     2.0000 </r>
       <r>   -15.8656     0.0000     2.0000 </r>
       <r>   -15.7931     0.0000     2.0000 </r>
       <r>   -15.7205     0.0000     2.0000 </r>
       <r>   -15.6480     0.0000     2.0000 </r>
       <r>   -15.5755     0.0000     2.0000 </r>
       <r>   -15.5029     0.0000     2.0000 </r>
       <r>   -15.4304     0.0000     2.0000 </r>
       <r>   -15.3579     0.0000     2.0000 </r>
       <r>   -15.2853     0.0000     2.0000 </r>
       <r>   -15.2128     0.0000     2.0000 </r>
       <r>   -15.1402     0.0000     2.0000 </r>
       <r>   -15.0677     0.0000     2.0000 </r>
       <r>   -14.9952     0.0000     2.0000 </r>
       <r>   -14.9226     0.0000     2.0000 </r>
       <r>   -14.8501     0.0000     2.0000 </r>
       <r>   -14.7775     0.0000     2.0000 </r>
       <r>   -14.7050     0.0000     2.0000 </r>
       <r>   -14.6325     0.0000     2.0000 </r>
       <r>   -14.5599     0.0000     2.0000 </r>
       <r>   -14.4874     0.0000     2.0000 </r>
       <r>   -14.4149     0.0000     2.0000 </r>
       <r>   -14.3423     0.0000     2.0000 </r>
       <r>   -14.2698     0.0000     2.0000 </r>
       <r>   -14.1972     0.0000     2.0000 </r>
       <r>   -14.1247     0.0000     2.0000 </r>
       <r>   -14.0522     0.0000     2.0000 </r>
       <r>   -13.9796     0.0000     2.0000 </r>
       <r>   -13.9071     0.0000     2.0000 </r>
       <r>   -13.8345     0.0000     2.0000 </r>
       <r>   -13.7620     0.0000     2.0000 </r>
       <r>   -13.6895     0.0000     2.0000 </r>
       <r>   -13.6169     0.0000     2.0000 </r>
       <r>   -13.5444     0.0000     2.0000 </r>
       <r>   -13.4719     0.0000     2.0000 </r>
       <r>   -13.3993     0.0000     2.0000 </r>
       <r>   -13.3268     0.0000     2.0000 </r>
       <r>   -13.2542     0.0000     2.0000 </r>
       <r>   -13.1817     0.0000     2.0000 </r>
       <r>   -13.1092     0.0000     2.0000 </r>
       <r>   -13.0366     0.0000     2.0000 </r>
       <r>   -12.9641     0.0000     2.0000 </r>
       <r>   -12.8915     0.0000     2.0000 </r>
       <r>   -12.8190     0.0000     2.0000 </r>
       <r>   -12.7465     0.0000     2.0000 </r>
       <r>   -12.6739     0.0000     2.0000 </r>
       <r>   -12.6014     0.0000     2.0000 </r>
       <r>   -12.5289     0.0000     2.0000 </r>
       <r>   -12.4563     0.0000     2.0000 </r>
       <r>   -12.3838     0.0000     2.0000 </r>
       <r>   -12.3112     0.0000     2.0000 </r>
       <r>   -12.2387     0.0000     2.0000 </r>
       <r>   -12.1662     0.0000     2.0000 </r>
       <r>   -12.0936     0.0000     2.0000 </r>
       <r>   -12.0211     0.0000     2.0000 </r>
       <r>   -11.9485     0.0000     2.0000 </r>
       <r>   -11.8760     0.0000     2.0000 </r>
       <r>   -11.8035     0.0000     2.0000 </r>
       <r>   -11.7309     0.0000     2.0000 </r>
       <r>   -11.6584     0.0000     2.0000 </r>
       <r>   -11.5859     0.0000     2.0000 </r>
       <r>   -11.5133     0.0000     2.0000 </r>
       <r>   -11.4408     0.0000     2.0000 </r>
       <r>   -11.3682     0.0000     2.0000 </r>
       <r>   -11.2957     0.0000     2.0000 </r>
       <r>   -11.2232     0.0000     2.0000 </r>
       <r>   -11.1506     0.0000     2.0000 </r>
       <r>   -11.0781     0.0000     2.0000 </r>
       <r>   -11.0055     0.0000     2.0000 </r>
       <r>   -10.9330     0.0000     2.0000 </r>
       <r>   -10.8605     0.0000     2.0000 </r>
       <r>   -10.7879     0.0000     2.0000 </r>
       <r>   -10.7154     0.0000     2.0000 </r>
       <r>   -10.6429     0.0000     2.0000 </r>
       <r>   -10.5703     0.0000     2.0000 </r>
       <r>   -10.4978     0.0000     2.0000 </r>
       <r>   -10.4252     0.0000     2.0000 </r>
       <r>   -10.3527     0.0000     2.0000 </r>
       <r>   -10.2802     0.0000     2.0000 </r>
       <r>   -10.2076     0.0000     2.0000 </r>
       <r>   -10.1351     0.0000     2.0000 </r>
       <r>   -10.0625     0.0003     2.0000 </r>
       <r>    -9.9900     0.0026     2.0002 </r>
       <r>    -9.9175     0.0172     2.0015 </r>
       <r>    -9.8449     0.0888     2.0079 </r>
       <r>    -9.7724     0.3606     2.0341 </r>
       <r>    -9.6999     1.1575     2.1180 </r>
       <r>    -9.6273     2.9611     2.3328 </r>
       <r>    -9.5548     6.0908     2.7746 </r>
       <r>    -9.4822    10.1506     3.5109 </r>
       <r>    -9.4097    13.7696     4.5098 </r>
       <r>    -9.3372    15.2072     5.6129 </r>
       <r>    -9.2646    13.6160     6.6006 </r>
       <r>    -9.1921     9.8138     7.3124 </r>
       <r>    -9.1195     5.6480     7.7221 </r>
       <r>    -9.0470     2.5761     7.9090 </r>
       <r>    -8.9745     0.9254     7.9761 </r>
       <r>    -8.9019     0.2606     7.9950 </r>
       <r>    -8.8294     0.0573     7.9992 </r>
       <r>    -8.7569     0.0098     7.9999 </r>
       <r>    -8.6843     0.0013     8.0000 </r>
       <r>    -8.6118     0.0001     8.0000 </r>
       <r>    -8.5392     0.0000     8.0000 </r>
       <r>    -8.4667     0.0000     8.0000 </r>
       <r>    -8.3942     0.0000     8.0000 </r>
       <r>    -8.3216     0.0000     8.0000 </r>
       <r>    -8.2491     0.0000     8.0000 </r>
       <r>    -8.1765     0.0000     8.0000 </r>
       <r>    -8.1040     0.0000     8.0000 </r>
       <r>    -8.0315     0.0000     8.0000 </r>
       <r>    -7.9589     0.0000     8.0000 </r>
       <r>    -7.8864     0.0000     8.0000 </r>
       <r>    -7.8139     0.0000     8.0000 </r>
       <r>    -7.7413     0.0000     8.0000 </r>
       <r>    -7.6688     0.0000     8.0000 </r>
       <r>    -7.5962     0.0000     8.0000 </r>
       <r>    -7.5237     0.0000     8.0000 </r>
       <r>    -7.4512     0.0000     8.0000 </r>
       <r>    -7.3786     0.0000     8.0000 </r>
       <r>    -7.3061     0.0000     8.0000 </r>
       <r>    -7.2335     0.0000     8.0000 </r>
       <r>    -7.1610     0.0000     8.0000 </r>
       <r>    -7.0885     0.0000     8.0000 </r>
       <r>    -7.0159     0.0000     8.0000 </r>
       <r>    -6.9434     0.0000     8.0000 </r>
       <r>    -6.8709     0.0000     8.0000 </r>
       <r>    -6.7983     0.0000     8.0000 </r>
       <r>    -6.7258     0.0000     8.0000 </r>
       <r>    -6.6532     0.0000     8.0000 </r>
       <r>    -6.5807     0.0000     8.0000 </r>
       <r>    -6.5082     0.0000     8.0000 </r>
       <r>    -6.4356     0.0000     8.0000 </r>
       <r>    -6.3631     0.0000     8.0000 </r>
       <r>    -6.2905     0.0000     8.0000 </r>
       <r>    -6.2180     0.0000     8.0000 </r>
       <r>    -6.1455     0.0000     8.0000 </r>
       <r>    -6.0729     0.0000     8.0000 </r>
       <r>    -6.0004     0.0000     8.0000 </r>
       <r>    -5.9279     0.0000     8.0000 </r>
       <r>    -5.8553     0.0000     8.0000 </r>
       <r>    -5.7828     0.0000     8.0000 </r>
       <r>    -5.7102     0.0000     8.0000 </r>
       <r>    -5.6377     0.0000     8.0000 </r>
       <r>    -5.5652     0.0000     8.0000 </r>
       <r>    -5.4926     0.0000     8.0000 </r>
       <r>    -5.4201     0.0000     8.0000 </r>
       <r>    -5.3475     0.0000     8.0000 </r>
       <r>    -5.2750     0.0000     8.0000 </r>
       <r>    -5.2025     0.0000     8.0000 </r>
       <r>    -5.1299     0.0000     8.0000 </r>
       <r>    -5.0574     0.0000     8.0000 </r>
       <r>    -4.9849     0.0000     8.0000 </r>
       <r>    -4.9123     0.0000     8.0000 </r>
       <r>    -4.8398     0.0000     8.0000 </r>
       <r>    -4.7672     0.0000     8.0000 </r>
       <r>    -4.6947     0.0000     8.0000 </r>
       <r>    -4.6222     0.0000     8.0000 </r>
       <r>    -4.5496     0.0000     8.0000 </r>
       <r>    -4.4771     0.0000     8.0000 </r>
       <r>    -4.4045     0.0000     8.0000 </r>
       <r>    -4.3320     0.0000     8.0000 </r>
       <r>    -4.2595     0.0000     8.0000 </r>
       <r>    -4.1869     0.0000     8.0000 </r>
       <r>    -4.1144     0.0000     8.0000 </r>
       <r>    -4.0419     0.0000     8.0000 </r>
       <r>    -3.9693     0.0000     8.0000 </r>
       <r>    -3.8968     0.0000     8.0000 </r>
       <r>    -3.8242     0.0000     8.0000 </r>
       <r>    -3.7517     0.0000     8.0000 </r>
       <r>    -3.6792     0.0000     8.0000 </r>
       <r>    -3.6066     0.0000     8.0000 </r>
       <r>    -3.5341     0.0000     8.0000 </r>
       <r>    -3.4615     0.0000     8.0000 </r>
       <r>    -3.3890     0.0000     8.0000 </r>
       <r>    -3.3165     0.0000     8.0000 </r>
       <r>    -3.2439     0.0000     8.0000 </r>
       <r>    -3.1714     0.0000     8.0000 </r>
       <r>    -3.0989     0.0000     8.0000 </r>
       <r>    -3.0263     0.0000     8.0000 </r>
       <r>    -2.9538     0.0000     8.0000 </r>
       <r>    -2.8812     0.0000     8.0000 </r>
       <r>    -2.8087     0.0000     8.0000 </r>
       <r>    -2.7362     0.0000     8.0000 </r>
       <r>    -2.6636     0.0000     8.0000 </r>
       <r>    -2.5911     0.0000     8.0000 </r>
       <r>    -2.5185     0.0000     8.0000 </r>
       <r>    -2.4460     0.0000     8.0000 </r>
       <r>    -2.3735     0.0000     8.0000 </r>
       <r>    -2.3009     0.0000     8.0000 </r>
       <r>    -2.2284     0.0000     8.0000 </r>
       <r>    -2.1559     0.0000     8.0000 </r>
       <r>    -2.0833     0.0000     8.0000 </r>
       <r>    -2.0108     0.0000     8.0000 </r>
       <r>    -1.9382     0.0000     8.0000 </r>
       <r>    -1.8657     0.0000     8.0000 </r>
       <r>    -1.7932     0.0000     8.0000 </r>
       <r>    -1.7206     0.0000     8.0000 </r>
       <r>    -1.6481     0.0000     8.0000 </r>
       <r>    -1.5755     0.0000     8.0000 </r>
       <r>    -1.5030     0.0000     8.0000 </r>
       <r>    -1.4305     0.0000     8.0000 </r>
       <r>    -1.3579     0.0000     8.0000 </r>
       <r>    -1.2854     0.0000     8.0000 </r>
       <r>    -1.2129     0.0000     8.0000 </r>
       <r>    -1.1403     0.0000     8.0000 </r>
       <r>    -1.0678     0.0000     8.0000 </r>
       <r>    -0.9952     0.0000     8.0000 </r>
       <r>    -0.9227     0.0001     8.0000 </r>
       <r>    -0.8502     0.0009     8.0001 </r>
       <r>    -0.7776     0.0068     8.0006 </r>
       <r>    -0.7051     0.0381     8.0033 </r>
       <r>    -0.6325     0.1665     8.0154 </r>
       <r>    -0.5600     0.5616     8.0561 </r>
       <r>    -0.4875     1.4644     8.1624 </r>
       <r>    -0.4149     2.9517     8.3765 </r>
       <r>    -0.3424     4.5999     8.7102 </r>
       <r>    -0.2699     5.5427     9.1122 </r>
       <r>    -0.1973     5.1639     9.4868 </r>
       <r>    -0.1248     3.7200     9.7566 </r>
       <r>    -0.0522     2.0724     9.9070 </r>
       <r>     0.0203     0.8962     9.9720 </r>
       <r>     0.0928     0.3224     9.9954 </r>
       <r>     0.1654     0.1990    10.0098 </r>
       <r>     0.2379     0.4783    10.0445 </r>
       <r>     0.3105     1.3890    10.1452 </r>
       <r>     0.3830     3.3290    10.3867 </r>
       <r>     0.4555     6.4869    10.8573 </r>
       <r>     0.5281    10.3753    11.6099 </r>
       <r>     0.6006    13.6994    12.6036 </r>
       <r>     0.6731    14.9073    13.6850 </r>
       <r>     0.7457    13.2572    14.6466 </r>
       <r>     0.8182     9.5233    15.3374 </r>
       <r>     0.8908     5.4625    15.7337 </r>
       <r>     0.9633     2.4783    15.9135 </r>
       <r>     1.0358     0.8832    15.9775 </r>
       <r>     1.1084     0.2461    15.9954 </r>
       <r>     1.1809     0.0534    15.9992 </r>
       <r>     1.2535     0.0090    15.9999 </r>
       <r>     1.3260     0.0012    16.0000 </r>
       <r>     1.3985     0.0001    16.0000 </r>
       <r>     1.4711     0.0000    16.0000 </r>
       <r>     1.5436     0.0000    16.0000 </r>
       <r>     1.6161     0.0000    16.0000 </r>
       <r>     1.6887     0.0000    16.0000 </r>
       <r>     1.7612     0.0000    16.0000 </r>
       <r>     1.8338     0.0000    16.0000 </r>
       <r>     1.9063     0.0000    16.0000 </r>
       <r>     1.9788     0.0000    16.0000 </r>
       <r>     2.0514     0.0000    16.0000 </r>
       <r>     2.1239     0.0000    16.0000 </r>
       <r>     2.1965     0.0000    16.0000 </r>
       <r>     2.2690     0.0000    16.0000 </r>
       <r>     2.3415     0.0000    16.0000 </r>
       <r>     2.4141     0.0000    16.0000 </r>
       <r>     2.4866     0.0000    16.0000 </r>
       <r>     2.5591     0.0000    16.0000 </r>
       <r>     2.6317     0.0000    16.0000 </r>
       <r>     2.7042     0.0000    16.0000 </r>
      </set>
     </set>
    </array>
   </total>
  </dos>
 </calculation>
 <structure name="finalpos" >
  <crystal>
   <varray name="basis" >
    <v>      10.05164042       0.00000000       0.00000000 </v>
    <v>      -0.29918550      10.29630911       0.00000000 </v>
    <v>      -0.18807208       0.13220272      10.27584584 </v>
   </varray>
   <i name="volume">   1063.49657680 </i>
   <varray name="rec_basis" >
    <v>       0.09948625       0.00289083       0.00178364 </v>
    <v>       0.00000000       0.09712218      -0.00124951 </v>
    <v>       0.00000000       0.00000000       0.09731559 </v>
   </varray>
  </crystal>
  <varray name="positions" >
   <v>       0.53540098       0.41102139       0.36639822 </v>
   <v>       0.39643893       0.47808619       0.43783931 </v>
   <v>       0.55202500       0.56088863       0.44290293 </v>
   <v>       0.52763023       0.41797769       0.53609062 </v>
   <v>       0.50345816       0.46638910       0.44520399 </v>
  </varray>
  <varray name="velocities" >
   <v>      -0.00018638       0.00020015       0.00024024 </v>
   <v>       0.00008199      -0.00033078      -0.00010213 </v>
   <v>       0.00018666      -0.00029739      -0.00000983 </v>
   <v>       0.00000202       0.00006578      -0.00017898 </v>
   <v>      -0.00000702       0.00003016       0.00000422 </v>
  </varray>
 </structure>
</modeling>
