unknown system                          
           1
    10.051640    0.000000    0.000000
    -0.299185   10.296309    0.000000
    -0.188072    0.132203   10.275846
   H    C 
   4   1
Direct configuration=     1
   0.53832907  0.40670230  0.36061397
   0.39452969  0.48037704  0.43843796
   0.55210030  0.56540115  0.44292730
   0.52811729  0.41647454  0.53923681
   0.50332651  0.46630741  0.44537175
Direct configuration=     2
   0.53822751  0.40686303  0.36083308
   0.39460424  0.48032331  0.43842641
   0.55206904  0.56524254  0.44292744
   0.52809507  0.41653313  0.53912136
   0.50333321  0.46630683  0.44536407
Direct configuration=     3
   0.53803004  0.40717437  0.36125768
   0.39474759  0.48021790  0.43840338
   0.55201015  0.56493532  0.44292788
   0.52805225  0.41664534  0.53889811
   0.50334618  0.46630592  0.44534919
Direct configuration=     4
   0.53774878  0.40761583  0.36185925
   0.39494904  0.48006370  0.43836897
   0.55193171  0.56449967  0.44292842
   0.52799245  0.41680306  0.53858263
   0.50336434  0.46630515  0.44532819
Direct configuration=     5
   0.53740155  0.40815727  0.36259580
   0.39519346  0.47986495  0.43832335
   0.55184535  0.56396456  0.44292874
   0.52792086  0.41699467  0.53819723
   0.50338605  0.46630521  0.44530273
Direct configuration=     6
   0.53701136  0.40875974  0.36341308
   0.39546220  0.47962699  0.43826680
   0.55176549  0.56336627  0.44292848
   0.52784387  0.41720574  0.53776957
   0.50340922  0.46630711  0.44527502
Direct configuration=     7
   0.53660540  0.40937719  0.36424704
   0.39573426  0.47935610  0.43819971
   0.55170851  0.56274634  0.44292721
   0.52776875  0.41741983  0.53733103
   0.50343137  0.46631204  0.44524779
Direct configuration=     8
   0.53621337  0.40995932  0.36502779
   0.39598776  0.47905923  0.43812262
   0.55169139  0.56214861  0.44292446
   0.52770307  0.41761973  0.53691441
   0.50344979  0.46632141  0.44522412
Direct configuration=     9
   0.53586507  0.41045574  0.36568554
   0.39620158  0.47874372  0.43803624
   0.55173019  0.56161585  0.44291979
   0.52765410  0.41778871  0.53655132
   0.50346184  0.46633664  0.44520717
Direct configuration=    10
   0.53558736  0.41082124  0.36615798
   0.39635694  0.47841697  0.43794144
   0.55183835  0.56118601  0.44291275
   0.52762821  0.41791192  0.53626960
   0.50346517  0.46635894  0.44519977
