unknown system                          
           1
    10.186896    0.000000    0.000000
     0.191443   10.166052    0.000000
    -0.271976   -0.278006    9.880484
   H    C 
   4   1
Direct configuration=     1
   0.53865390  0.40716467  0.36029393
   0.39489643  0.48084325  0.43804875
   0.55171230  0.56572684  0.44254446
   0.52839980  0.41687529  0.53990236
   0.50283177  0.46653180  0.44571855
Direct configuration=     2
   0.53863568  0.40712329  0.36025124
   0.39497681  0.48083096  0.43803190
   0.55159508  0.56550456  0.44259446
   0.52842066  0.41689593  0.53992281
   0.50283461  0.46655306  0.44571764
Direct configuration=     3
   0.53859790  0.40704223  0.36016893
   0.39513176  0.48080631  0.43799796
   0.55136797  0.56507575  0.44269396
   0.52846151  0.41693695  0.53996240
   0.50284037  0.46659414  0.44571574
Direct configuration=     4
   0.53853876  0.40692638  0.36005446
   0.39534989  0.48077029  0.43794708
   0.55104618  0.56447047  0.44284051
   0.52852070  0.41699842  0.54001762
   0.50284899  0.46665206  0.44571270
Direct configuration=     5
   0.53845603  0.40678229  0.35991775
   0.39561473  0.48072435  0.43787950
   0.55065215  0.56373300  0.44303050
   0.52859598  0.41708008  0.54008404
   0.50286037  0.46672249  0.44570836
Direct configuration=     6
   0.53834744  0.40661781  0.35977052
   0.39590594  0.48067024  0.43779561
   0.55021470  0.56292021  0.44325930
   0.52868454  0.41718133  0.54015647
   0.50287421  0.46679992  0.44570253
Direct configuration=     7
   0.53821102  0.40644152  0.35962518
   0.39620096  0.48060999  0.43769604
   0.54976755  0.56209853  0.44352145
   0.52878321  0.41730116  0.54022951
   0.50289002  0.46687805  0.44569501
Direct configuration=     8
   0.53804552  0.40626209  0.35949385
   0.39647681  0.48054569  0.43758171
   0.54934692  0.56133936  0.44381098
   0.52888857  0.41743808  0.54029794
   0.50290708  0.46695015  0.44568566
Direct configuration=     9
   0.53785079  0.40608763  0.35938720
   0.39671178  0.48047949  0.43745395
   0.54898854  0.56071297  0.44412161
   0.52899720  0.41758995  0.54035738
   0.50292453  0.46700970  0.44567437
Direct configuration=    10
   0.53762813  0.40592510  0.35931356
   0.39688733  0.48041342  0.43731455
   0.54872381  0.56028104  0.44444706
   0.52910585  0.41775393  0.54040472
   0.50294144  0.46705104  0.44566107
