   5   5   0   0
  0.1981115E+03  0.1013759E-08  0.9968928E-09  0.9807630E-09  0.5000000E-15
  1.000000000000000E-004
  CAR 
 unknown system                          
      2.71814997    -18.84861687  301     -8.20894169      1.00000000
    -18.849  0.0000E+00  0.0000E+00
    -18.777  0.0000E+00  0.0000E+00
    -18.705  0.0000E+00  0.0000E+00
    -18.633  0.0000E+00  0.0000E+00
    -18.561  0.0000E+00  0.0000E+00
    -18.489  0.0000E+00  0.0000E+00
    -18.417  0.0000E+00  0.0000E+00
    -18.345  0.0000E+00  0.0000E+00
    -18.274  0.0000E+00  0.0000E+00
    -18.202  0.0000E+00  0.0000E+00
    -18.130  0.0000E+00  0.0000E+00
    -18.058  0.0000E+00  0.0000E+00
    -17.986  0.1326E-13  0.9548E-15
    -17.914  0.7377E-12  0.5409E-13
    -17.842  0.3178E-10  0.2343E-11
    -17.770  0.1060E-08  0.7868E-10
    -17.698  0.2736E-07  0.2050E-08
    -17.627  0.5471E-06  0.4145E-07
    -17.555  0.8470E-05  0.6515E-06
    -17.483  0.1016E-03  0.7968E-05
    -17.411  0.9441E-03  0.7597E-04
    -17.339  0.6800E-02  0.5657E-03
    -17.267  0.3797E-01  0.3300E-02
    -17.195  0.1644E+00  0.1514E-01
    -17.123  0.5518E+00  0.5488E-01
    -17.051  0.1437E+01  0.1584E+00
    -16.979  0.2902E+01  0.3674E+00
    -16.908  0.4548E+01  0.6949E+00
    -16.836  0.5529E+01  0.1093E+01
    -16.764  0.5216E+01  0.1469E+01
    -16.692  0.3818E+01  0.1744E+01
    -16.620  0.2168E+01  0.1900E+01
    -16.548  0.9555E+00  0.1969E+01
    -16.476  0.3266E+00  0.1992E+01
    -16.404  0.8660E-01  0.1998E+01
    -16.332  0.1781E-01  0.2000E+01
    -16.261  0.2840E-02  0.2000E+01
    -16.189  0.3511E-03  0.2000E+01
    -16.117  0.3364E-04  0.2000E+01
    -16.045  0.2499E-05  0.2000E+01
    -15.973  0.1438E-06  0.2000E+01
    -15.901  0.6411E-08  0.2000E+01
    -15.829  0.2214E-09  0.2000E+01
    -15.757  0.5919E-11  0.2000E+01
    -15.685  0.1243E-12  0.2000E+01
    -15.614  0.9263E-15  0.2000E+01
    -15.542  0.0000E+00  0.2000E+01
    -15.470  0.0000E+00  0.2000E+01
    -15.398  0.0000E+00  0.2000E+01
    -15.326  0.0000E+00  0.2000E+01
    -15.254  0.0000E+00  0.2000E+01
    -15.182  0.0000E+00  0.2000E+01
    -15.110  0.0000E+00  0.2000E+01
    -15.038  0.0000E+00  0.2000E+01
    -14.967  0.0000E+00  0.2000E+01
    -14.895  0.0000E+00  0.2000E+01
    -14.823  0.0000E+00  0.2000E+01
    -14.751  0.0000E+00  0.2000E+01
    -14.679  0.0000E+00  0.2000E+01
    -14.607  0.0000E+00  0.2000E+01
    -14.535  0.0000E+00  0.2000E+01
    -14.463  0.0000E+00  0.2000E+01
    -14.391  0.0000E+00  0.2000E+01
    -14.320  0.0000E+00  0.2000E+01
    -14.248  0.0000E+00  0.2000E+01
    -14.176  0.0000E+00  0.2000E+01
    -14.104  0.0000E+00  0.2000E+01
    -14.032  0.0000E+00  0.2000E+01
    -13.960  0.0000E+00  0.2000E+01
    -13.888  0.0000E+00  0.2000E+01
    -13.816  0.0000E+00  0.2000E+01
    -13.744  0.0000E+00  0.2000E+01
    -13.673  0.0000E+00  0.2000E+01
    -13.601  0.0000E+00  0.2000E+01
    -13.529  0.0000E+00  0.2000E+01
    -13.457  0.0000E+00  0.2000E+01
    -13.385  0.0000E+00  0.2000E+01
    -13.313  0.0000E+00  0.2000E+01
    -13.241  0.0000E+00  0.2000E+01
    -13.169  0.0000E+00  0.2000E+01
    -13.097  0.0000E+00  0.2000E+01
    -13.026  0.0000E+00  0.2000E+01
    -12.954  0.0000E+00  0.2000E+01
    -12.882  0.0000E+00  0.2000E+01
    -12.810  0.0000E+00  0.2000E+01
    -12.738  0.0000E+00  0.2000E+01
    -12.666  0.0000E+00  0.2000E+01
    -12.594  0.0000E+00  0.2000E+01
    -12.522  0.0000E+00  0.2000E+01
    -12.450  0.0000E+00  0.2000E+01
    -12.379  0.0000E+00  0.2000E+01
    -12.307  0.0000E+00  0.2000E+01
    -12.235  0.0000E+00  0.2000E+01
    -12.163  0.0000E+00  0.2000E+01
    -12.091  0.0000E+00  0.2000E+01
    -12.019  0.0000E+00  0.2000E+01
    -11.947  0.0000E+00  0.2000E+01
    -11.875  0.0000E+00  0.2000E+01
    -11.803  0.0000E+00  0.2000E+01
    -11.732  0.0000E+00  0.2000E+01
    -11.660  0.0000E+00  0.2000E+01
    -11.588  0.0000E+00  0.2000E+01
    -11.516  0.0000E+00  0.2000E+01
    -11.444  0.0000E+00  0.2000E+01
    -11.372  0.0000E+00  0.2000E+01
    -11.300  0.0000E+00  0.2000E+01
    -11.228  0.0000E+00  0.2000E+01
    -11.156  0.0000E+00  0.2000E+01
    -11.085  0.0000E+00  0.2000E+01
    -11.013  0.0000E+00  0.2000E+01
    -10.941  0.0000E+00  0.2000E+01
    -10.869  0.0000E+00  0.2000E+01
    -10.797  0.0000E+00  0.2000E+01
    -10.725  0.0000E+00  0.2000E+01
    -10.653  0.0000E+00  0.2000E+01
    -10.581  0.0000E+00  0.2000E+01
    -10.509  0.6008E-14  0.2000E+01
    -10.438  0.3540E-12  0.2000E+01
    -10.366  0.1592E-10  0.2000E+01
    -10.294  0.5553E-09  0.2000E+01
    -10.222  0.1503E-07  0.2000E+01
    -10.150  0.3162E-06  0.2000E+01
    -10.078  0.5170E-05  0.2000E+01
    -10.006  0.6580E-04  0.2000E+01
     -9.934  0.6527E-03  0.2000E+01
     -9.862  0.5056E-02  0.2000E+01
     -9.791  0.3063E-01  0.2003E+01
     -9.719  0.1456E+00  0.2013E+01
     -9.647  0.5448E+00  0.2052E+01
     -9.575  0.1612E+01  0.2168E+01
     -9.503  0.3793E+01  0.2442E+01
     -9.431  0.7159E+01  0.2957E+01
     -9.359  0.1095E+02  0.3746E+01
     -9.287  0.1372E+02  0.4733E+01
     -9.215  0.1426E+02  0.5760E+01
     -9.144  0.1239E+02  0.6652E+01
     -9.072  0.9006E+01  0.7301E+01
     -9.000  0.5445E+01  0.7693E+01
     -8.928  0.2706E+01  0.7888E+01
     -8.856  0.1091E+01  0.7967E+01
     -8.784  0.3524E+00  0.7992E+01
     -8.712  0.9039E-01  0.7998E+01
     -8.640  0.1827E-01  0.8000E+01
     -8.568  0.2897E-02  0.8000E+01
     -8.497  0.3591E-03  0.8000E+01
     -8.425  0.3472E-04  0.8000E+01
     -8.353  0.2612E-05  0.8000E+01
     -8.281  0.1528E-06  0.8000E+01
     -8.209  0.6946E-08  0.8000E+01
     -8.137  0.2450E-09  0.8000E+01
     -8.065  0.6705E-11  0.8000E+01
     -7.993  0.1429E-12  0.8000E+01
     -7.921  0.1847E-14  0.8000E+01
     -7.850  0.0000E+00  0.8000E+01
     -7.778  0.0000E+00  0.8000E+01
     -7.706  0.0000E+00  0.8000E+01
     -7.634  0.0000E+00  0.8000E+01
     -7.562  0.0000E+00  0.8000E+01
     -7.490  0.0000E+00  0.8000E+01
     -7.418  0.0000E+00  0.8000E+01
     -7.346  0.0000E+00  0.8000E+01
     -7.274  0.0000E+00  0.8000E+01
     -7.203  0.0000E+00  0.8000E+01
     -7.131  0.0000E+00  0.8000E+01
     -7.059  0.0000E+00  0.8000E+01
     -6.987  0.0000E+00  0.8000E+01
     -6.915  0.0000E+00  0.8000E+01
     -6.843  0.0000E+00  0.8000E+01
     -6.771  0.0000E+00  0.8000E+01
     -6.699  0.0000E+00  0.8000E+01
     -6.627  0.0000E+00  0.8000E+01
     -6.556  0.0000E+00  0.8000E+01
     -6.484  0.0000E+00  0.8000E+01
     -6.412  0.0000E+00  0.8000E+01
     -6.340  0.0000E+00  0.8000E+01
     -6.268  0.0000E+00  0.8000E+01
     -6.196  0.0000E+00  0.8000E+01
     -6.124  0.0000E+00  0.8000E+01
     -6.052  0.0000E+00  0.8000E+01
     -5.980  0.0000E+00  0.8000E+01
     -5.909  0.0000E+00  0.8000E+01
     -5.837  0.0000E+00  0.8000E+01
     -5.765  0.0000E+00  0.8000E+01
     -5.693  0.0000E+00  0.8000E+01
     -5.621  0.0000E+00  0.8000E+01
     -5.549  0.0000E+00  0.8000E+01
     -5.477  0.0000E+00  0.8000E+01
     -5.405  0.0000E+00  0.8000E+01
     -5.333  0.0000E+00  0.8000E+01
     -5.262  0.0000E+00  0.8000E+01
     -5.190  0.0000E+00  0.8000E+01
     -5.118  0.0000E+00  0.8000E+01
     -5.046  0.0000E+00  0.8000E+01
     -4.974  0.0000E+00  0.8000E+01
     -4.902  0.0000E+00  0.8000E+01
     -4.830  0.0000E+00  0.8000E+01
     -4.758  0.0000E+00  0.8000E+01
     -4.686  0.0000E+00  0.8000E+01
     -4.615  0.0000E+00  0.8000E+01
     -4.543  0.0000E+00  0.8000E+01
     -4.471  0.0000E+00  0.8000E+01
     -4.399  0.0000E+00  0.8000E+01
     -4.327  0.0000E+00  0.8000E+01
     -4.255  0.0000E+00  0.8000E+01
     -4.183  0.0000E+00  0.8000E+01
     -4.111  0.0000E+00  0.8000E+01
     -4.039  0.0000E+00  0.8000E+01
     -3.968  0.0000E+00  0.8000E+01
     -3.896  0.0000E+00  0.8000E+01
     -3.824  0.0000E+00  0.8000E+01
     -3.752  0.0000E+00  0.8000E+01
     -3.680  0.0000E+00  0.8000E+01
     -3.608  0.0000E+00  0.8000E+01
     -3.536  0.0000E+00  0.8000E+01
     -3.464  0.0000E+00  0.8000E+01
     -3.392  0.0000E+00  0.8000E+01
     -3.321  0.0000E+00  0.8000E+01
     -3.249  0.0000E+00  0.8000E+01
     -3.177  0.0000E+00  0.8000E+01
     -3.105  0.0000E+00  0.8000E+01
     -3.033  0.0000E+00  0.8000E+01
     -2.961  0.0000E+00  0.8000E+01
     -2.889  0.0000E+00  0.8000E+01
     -2.817  0.0000E+00  0.8000E+01
     -2.745  0.0000E+00  0.8000E+01
     -2.674  0.0000E+00  0.8000E+01
     -2.602  0.0000E+00  0.8000E+01
     -2.530  0.0000E+00  0.8000E+01
     -2.458  0.0000E+00  0.8000E+01
     -2.386  0.0000E+00  0.8000E+01
     -2.314  0.0000E+00  0.8000E+01
     -2.242  0.0000E+00  0.8000E+01
     -2.170  0.0000E+00  0.8000E+01
     -2.098  0.0000E+00  0.8000E+01
     -2.027  0.0000E+00  0.8000E+01
     -1.955  0.0000E+00  0.8000E+01
     -1.883  0.0000E+00  0.8000E+01
     -1.811  0.0000E+00  0.8000E+01
     -1.739  0.0000E+00  0.8000E+01
     -1.667  0.0000E+00  0.8000E+01
     -1.595  0.0000E+00  0.8000E+01
     -1.523  0.0000E+00  0.8000E+01
     -1.451  0.1029E-13  0.8000E+01
     -1.380  0.5749E-12  0.8000E+01
     -1.308  0.2500E-10  0.8000E+01
     -1.236  0.8427E-09  0.8000E+01
     -1.164  0.2201E-07  0.8000E+01
     -1.092  0.4456E-06  0.8000E+01
     -1.020  0.6993E-05  0.8000E+01
     -0.948  0.8511E-04  0.8000E+01
     -0.876  0.8034E-03  0.8000E+01
     -0.804  0.5883E-02  0.8000E+01
     -0.733  0.3342E-01  0.8003E+01
     -0.661  0.1473E+00  0.8014E+01
     -0.589  0.5041E+00  0.8050E+01
     -0.517  0.1339E+01  0.8146E+01
     -0.445  0.2759E+01  0.8345E+01
     -0.373  0.4416E+01  0.8663E+01
     -0.301  0.5486E+01  0.9058E+01
     -0.229  0.5291E+01  0.9439E+01
     -0.157  0.3961E+01  0.9724E+01
     -0.086  0.2302E+01  0.9890E+01
     -0.014  0.1039E+01  0.9965E+01
      0.058  0.3676E+00  0.9991E+01
      0.130  0.1239E+00  0.1000E+02
      0.202  0.1429E+00  0.1001E+02
      0.274  0.4716E+00  0.1004E+02
      0.346  0.1429E+01  0.1015E+02
      0.418  0.3491E+01  0.1040E+02
      0.490  0.6888E+01  0.1089E+02
      0.561  0.1103E+02  0.1169E+02
      0.633  0.1438E+02  0.1272E+02
      0.705  0.1524E+02  0.1382E+02
      0.777  0.1307E+02  0.1476E+02
      0.849  0.9018E+01  0.1541E+02
      0.921  0.4969E+01  0.1577E+02
      0.993  0.2173E+01  0.1593E+02
      1.065  0.7498E+00  0.1598E+02
      1.137  0.2035E+00  0.1600E+02
      1.208  0.4327E-01  0.1600E+02
      1.280  0.7195E-02  0.1600E+02
      1.352  0.9340E-03  0.1600E+02
      1.424  0.9453E-04  0.1600E+02
      1.496  0.7451E-05  0.1600E+02
      1.568  0.4570E-06  0.1600E+02
      1.640  0.2179E-07  0.1600E+02
      1.712  0.8077E-09  0.1600E+02
      1.784  0.2325E-10  0.1600E+02
      1.855  0.5208E-12  0.1600E+02
      1.927  0.8016E-14  0.1600E+02
      1.999  0.0000E+00  0.1600E+02
      2.071  0.0000E+00  0.1600E+02
      2.143  0.0000E+00  0.1600E+02
      2.215  0.0000E+00  0.1600E+02
      2.287  0.0000E+00  0.1600E+02
      2.359  0.0000E+00  0.1600E+02
      2.431  0.0000E+00  0.1600E+02
      2.502  0.0000E+00  0.1600E+02
      2.574  0.0000E+00  0.1600E+02
      2.646  0.0000E+00  0.1600E+02
      2.718  0.0000E+00  0.1600E+02
      2.72790789    -18.84699787  301     -8.27515358      1.00000000
    -18.847  0.0000E+00  0.0000E+00
    -18.775  0.0000E+00  0.0000E+00
    -18.703  0.0000E+00  0.0000E+00
    -18.631  0.0000E+00  0.0000E+00
    -18.559  0.0000E+00  0.0000E+00
    -18.487  0.0000E+00  0.0000E+00
    -18.415  0.0000E+00  0.0000E+00
    -18.344  0.0000E+00  0.0000E+00
    -18.272  0.0000E+00  0.0000E+00
    -18.200  0.0000E+00  0.0000E+00
    -18.128  0.0000E+00  0.0000E+00
    -18.056  0.0000E+00  0.0000E+00
    -17.984  0.1235E-14  0.8882E-16
    -17.912  0.6850E-13  0.5015E-14
    -17.840  0.2952E-11  0.2173E-12
    -17.768  0.9846E-10  0.7299E-11
    -17.696  0.2545E-08  0.1903E-09
    -17.624  0.5097E-07  0.3856E-08
    -17.553  0.7911E-06  0.6075E-07
    -17.481  0.9520E-05  0.7454E-06
    -17.409  0.8884E-04  0.7134E-05
    -17.337  0.6429E-03  0.5337E-04
    -17.265  0.3610E-02  0.3130E-03
    -17.193  0.1572E-01  0.1444E-02
    -17.121  0.5315E-01  0.5266E-02
    -17.049  0.1395E+00  0.1530E-01
    -16.977  0.2841E+00  0.3573E-01
    -16.905  0.4492E+00  0.6803E-01
    -16.833  0.5514E+00  0.1077E+00
    -16.761  0.5256E+00  0.1455E+00
    -16.690  0.3889E+00  0.1735E+00
    -16.618  0.2235E+00  0.1895E+00
    -16.546  0.9966E-01  0.1967E+00
    -16.474  0.3450E-01  0.1992E+00
    -16.402  0.9271E-02  0.1998E+00
    -16.330  0.1933E-02  0.2000E+00
    -16.258  0.3127E-03  0.2000E+00
    -16.186  0.3924E-04  0.2000E+00
    -16.114  0.3818E-05  0.2000E+00
    -16.042  0.2881E-06  0.2000E+00
    -15.970  0.1685E-07  0.2000E+00
    -15.898  0.7638E-09  0.2000E+00
    -15.827  0.2683E-10  0.2000E+00
    -15.755  0.7301E-12  0.2000E+00
    -15.683  0.1513E-13  0.2000E+00
    -15.611  0.3088E-15  0.2000E+00
    -15.539  0.0000E+00  0.2000E+00
    -15.467  0.0000E+00  0.2000E+00
    -15.395  0.0000E+00  0.2000E+00
    -15.323  0.0000E+00  0.2000E+00
    -15.251  0.0000E+00  0.2000E+00
    -15.179  0.0000E+00  0.2000E+00
    -15.107  0.0000E+00  0.2000E+00
    -15.035  0.0000E+00  0.2000E+00
    -14.964  0.0000E+00  0.2000E+00
    -14.892  0.0000E+00  0.2000E+00
    -14.820  0.0000E+00  0.2000E+00
    -14.748  0.0000E+00  0.2000E+00
    -14.676  0.0000E+00  0.2000E+00
    -14.604  0.0000E+00  0.2000E+00
    -14.532  0.0000E+00  0.2000E+00
    -14.460  0.0000E+00  0.2000E+00
    -14.388  0.0000E+00  0.2000E+00
    -14.316  0.0000E+00  0.2000E+00
    -14.244  0.0000E+00  0.2000E+00
    -14.172  0.0000E+00  0.2000E+00
    -14.101  0.0000E+00  0.2000E+00
    -14.029  0.0000E+00  0.2000E+00
    -13.957  0.0000E+00  0.2000E+00
    -13.885  0.0000E+00  0.2000E+00
    -13.813  0.0000E+00  0.2000E+00
    -13.741  0.0000E+00  0.2000E+00
    -13.669  0.0000E+00  0.2000E+00
    -13.597  0.0000E+00  0.2000E+00
    -13.525  0.0000E+00  0.2000E+00
    -13.453  0.0000E+00  0.2000E+00
    -13.381  0.0000E+00  0.2000E+00
    -13.309  0.0000E+00  0.2000E+00
    -13.238  0.0000E+00  0.2000E+00
    -13.166  0.0000E+00  0.2000E+00
    -13.094  0.0000E+00  0.2000E+00
    -13.022  0.0000E+00  0.2000E+00
    -12.950  0.0000E+00  0.2000E+00
    -12.878  0.0000E+00  0.2000E+00
    -12.806  0.0000E+00  0.2000E+00
    -12.734  0.0000E+00  0.2000E+00
    -12.662  0.0000E+00  0.2000E+00
    -12.590  0.0000E+00  0.2000E+00
    -12.518  0.0000E+00  0.2000E+00
    -12.446  0.0000E+00  0.2000E+00
    -12.375  0.0000E+00  0.2000E+00
    -12.303  0.0000E+00  0.2000E+00
    -12.231  0.0000E+00  0.2000E+00
    -12.159  0.0000E+00  0.2000E+00
    -12.087  0.0000E+00  0.2000E+00
    -12.015  0.0000E+00  0.2000E+00
    -11.943  0.0000E+00  0.2000E+00
    -11.871  0.0000E+00  0.2000E+00
    -11.799  0.0000E+00  0.2000E+00
    -11.727  0.0000E+00  0.2000E+00
    -11.655  0.0000E+00  0.2000E+00
    -11.583  0.0000E+00  0.2000E+00
    -11.512  0.0000E+00  0.2000E+00
    -11.440  0.0000E+00  0.2000E+00
    -11.368  0.0000E+00  0.2000E+00
    -11.296  0.0000E+00  0.2000E+00
    -11.224  0.0000E+00  0.2000E+00
    -11.152  0.0000E+00  0.2000E+00
    -11.080  0.0000E+00  0.2000E+00
    -11.008  0.0000E+00  0.2000E+00
    -10.936  0.0000E+00  0.2000E+00
    -10.864  0.0000E+00  0.2000E+00
    -10.792  0.0000E+00  0.2000E+00
    -10.720  0.0000E+00  0.2000E+00
    -10.649  0.0000E+00  0.2000E+00
    -10.577  0.0000E+00  0.2000E+00
    -10.505  0.6175E-15  0.2000E+00
    -10.433  0.3134E-13  0.2000E+00
    -10.361  0.1428E-11  0.2000E+00
    -10.289  0.5020E-10  0.2000E+00
    -10.217  0.1368E-08  0.2000E+00
    -10.145  0.2891E-07  0.2000E+00
    -10.073  0.4743E-06  0.2000E+00
    -10.001  0.6048E-05  0.2000E+00
     -9.929  0.6001E-04  0.2000E+00
     -9.857  0.4645E-03  0.2000E+00
     -9.786  0.2812E-02  0.2002E+00
     -9.714  0.1338E-01  0.2012E+00
     -9.642  0.5027E-01  0.2048E+00
     -9.570  0.1503E+00  0.2156E+00
     -9.498  0.3608E+00  0.2416E+00
     -9.426  0.7010E+00  0.2920E+00
     -9.354  0.1110E+01  0.3718E+00
     -9.282  0.1436E+01  0.4751E+00
     -9.210  0.1517E+01  0.5842E+00
     -9.138  0.1299E+01  0.6776E+00
     -9.066  0.8954E+00  0.7420E+00
     -8.994  0.4927E+00  0.7774E+00
     -8.923  0.2149E+00  0.7929E+00
     -8.851  0.7387E-01  0.7982E+00
     -8.779  0.1993E-01  0.7996E+00
     -8.707  0.4207E-02  0.7999E+00
     -8.635  0.6935E-03  0.8000E+00
     -8.563  0.8913E-04  0.8000E+00
     -8.491  0.8919E-05  0.8000E+00
     -8.419  0.6945E-06  0.8000E+00
     -8.347  0.4205E-07  0.8000E+00
     -8.275  0.1978E-08  0.8000E+00
     -8.203  0.7228E-10  0.8000E+00
     -8.131  0.2050E-11  0.8000E+00
     -8.060  0.4554E-13  0.8000E+00
     -7.988  0.6175E-15  0.8000E+00
     -7.916  0.0000E+00  0.8000E+00
     -7.844  0.0000E+00  0.8000E+00
     -7.772  0.0000E+00  0.8000E+00
     -7.700  0.0000E+00  0.8000E+00
     -7.628  0.0000E+00  0.8000E+00
     -7.556  0.0000E+00  0.8000E+00
     -7.484  0.0000E+00  0.8000E+00
     -7.412  0.0000E+00  0.8000E+00
     -7.340  0.0000E+00  0.8000E+00
     -7.268  0.0000E+00  0.8000E+00
     -7.197  0.0000E+00  0.8000E+00
     -7.125  0.0000E+00  0.8000E+00
     -7.053  0.0000E+00  0.8000E+00
     -6.981  0.0000E+00  0.8000E+00
     -6.909  0.0000E+00  0.8000E+00
     -6.837  0.0000E+00  0.8000E+00
     -6.765  0.0000E+00  0.8000E+00
     -6.693  0.0000E+00  0.8000E+00
     -6.621  0.0000E+00  0.8000E+00
     -6.549  0.0000E+00  0.8000E+00
     -6.477  0.0000E+00  0.8000E+00
     -6.405  0.0000E+00  0.8000E+00
     -6.334  0.0000E+00  0.8000E+00
     -6.262  0.0000E+00  0.8000E+00
     -6.190  0.0000E+00  0.8000E+00
     -6.118  0.0000E+00  0.8000E+00
     -6.046  0.0000E+00  0.8000E+00
     -5.974  0.0000E+00  0.8000E+00
     -5.902  0.0000E+00  0.8000E+00
     -5.830  0.0000E+00  0.8000E+00
     -5.758  0.0000E+00  0.8000E+00
     -5.686  0.0000E+00  0.8000E+00
     -5.614  0.0000E+00  0.8000E+00
     -5.542  0.0000E+00  0.8000E+00
     -5.471  0.0000E+00  0.8000E+00
     -5.399  0.0000E+00  0.8000E+00
     -5.327  0.0000E+00  0.8000E+00
     -5.255  0.0000E+00  0.8000E+00
     -5.183  0.0000E+00  0.8000E+00
     -5.111  0.0000E+00  0.8000E+00
     -5.039  0.0000E+00  0.8000E+00
     -4.967  0.0000E+00  0.8000E+00
     -4.895  0.0000E+00  0.8000E+00
     -4.823  0.0000E+00  0.8000E+00
     -4.751  0.0000E+00  0.8000E+00
     -4.679  0.0000E+00  0.8000E+00
     -4.608  0.0000E+00  0.8000E+00
     -4.536  0.0000E+00  0.8000E+00
     -4.464  0.0000E+00  0.8000E+00
     -4.392  0.0000E+00  0.8000E+00
     -4.320  0.0000E+00  0.8000E+00
     -4.248  0.0000E+00  0.8000E+00
     -4.176  0.0000E+00  0.8000E+00
     -4.104  0.0000E+00  0.8000E+00
     -4.032  0.0000E+00  0.8000E+00
     -3.960  0.0000E+00  0.8000E+00
     -3.888  0.0000E+00  0.8000E+00
     -3.816  0.0000E+00  0.8000E+00
     -3.745  0.0000E+00  0.8000E+00
     -3.673  0.0000E+00  0.8000E+00
     -3.601  0.0000E+00  0.8000E+00
     -3.529  0.0000E+00  0.8000E+00
     -3.457  0.0000E+00  0.8000E+00
     -3.385  0.0000E+00  0.8000E+00
     -3.313  0.0000E+00  0.8000E+00
     -3.241  0.0000E+00  0.8000E+00
     -3.169  0.0000E+00  0.8000E+00
     -3.097  0.0000E+00  0.8000E+00
     -3.025  0.0000E+00  0.8000E+00
     -2.953  0.0000E+00  0.8000E+00
     -2.882  0.0000E+00  0.8000E+00
     -2.810  0.0000E+00  0.8000E+00
     -2.738  0.0000E+00  0.8000E+00
     -2.666  0.0000E+00  0.8000E+00
     -2.594  0.0000E+00  0.8000E+00
     -2.522  0.0000E+00  0.8000E+00
     -2.450  0.0000E+00  0.8000E+00
     -2.378  0.0000E+00  0.8000E+00
     -2.306  0.0000E+00  0.8000E+00
     -2.234  0.0000E+00  0.8000E+00
     -2.162  0.0000E+00  0.8000E+00
     -2.090  0.0000E+00  0.8000E+00
     -2.019  0.0000E+00  0.8000E+00
     -1.947  0.0000E+00  0.8000E+00
     -1.875  0.0000E+00  0.8000E+00
     -1.803  0.0000E+00  0.8000E+00
     -1.731  0.0000E+00  0.8000E+00
     -1.659  0.0000E+00  0.8000E+00
     -1.587  0.0000E+00  0.8000E+00
     -1.515  0.0000E+00  0.8000E+00
     -1.443  0.2123E-14  0.8000E+00
     -1.371  0.1121E-12  0.8000E+00
     -1.299  0.4669E-11  0.8000E+00
     -1.227  0.1507E-09  0.8000E+00
     -1.156  0.3767E-08  0.8000E+00
     -1.084  0.7301E-07  0.8000E+00
     -1.012  0.1097E-05  0.8000E+00
     -0.940  0.1277E-04  0.8000E+00
     -0.868  0.1154E-03  0.8000E+00
     -0.796  0.8086E-03  0.8001E+00
     -0.724  0.4396E-02  0.8004E+00
     -0.652  0.1855E-01  0.8017E+00
     -0.580  0.6073E-01  0.8061E+00
     -0.508  0.1544E+00  0.8172E+00
     -0.436  0.3047E+00  0.8391E+00
     -0.364  0.4669E+00  0.8727E+00
     -0.293  0.5555E+00  0.9126E+00
     -0.221  0.5133E+00  0.9495E+00
     -0.149  0.3683E+00  0.9760E+00
     -0.077  0.2052E+00  0.9908E+00
     -0.005  0.8878E-01  0.9972E+00
      0.067  0.3014E-01  0.9993E+00
      0.139  0.9916E-02  0.1000E+01
      0.211  0.1229E-01  0.1001E+01
      0.283  0.4251E-01  0.1004E+01
      0.355  0.1324E+00  0.1014E+01
      0.427  0.3318E+00  0.1037E+01
      0.499  0.6691E+00  0.1086E+01
      0.570  0.1091E+01  0.1164E+01
      0.642  0.1441E+01  0.1268E+01
      0.714  0.1541E+01  0.1378E+01
      0.786  0.1329E+01  0.1474E+01
      0.858  0.9196E+00  0.1540E+01
      0.930  0.5074E+00  0.1577E+01
      1.002  0.2220E+00  0.1593E+01
      1.074  0.7668E-01  0.1598E+01
      1.146  0.2082E-01  0.1600E+01
      1.218  0.4433E-02  0.1600E+01
      1.290  0.7383E-03  0.1600E+01
      1.361  0.9604E-04  0.1600E+01
      1.433  0.9743E-05  0.1600E+01
      1.505  0.7702E-06  0.1600E+01
      1.577  0.4740E-07  0.1600E+01
      1.649  0.2270E-08  0.1600E+01
      1.721  0.8451E-10  0.1600E+01
      1.793  0.2445E-11  0.1600E+01
      1.865  0.5511E-13  0.1600E+01
      1.937  0.8491E-15  0.1600E+01
      2.009  0.0000E+00  0.1600E+01
      2.081  0.0000E+00  0.1600E+01
      2.153  0.0000E+00  0.1600E+01
      2.224  0.0000E+00  0.1600E+01
      2.296  0.0000E+00  0.1600E+01
      2.368  0.0000E+00  0.1600E+01
      2.440  0.0000E+00  0.1600E+01
      2.512  0.0000E+00  0.1600E+01
      2.584  0.0000E+00  0.1600E+01
      2.656  0.0000E+00  0.1600E+01
      2.728  0.0000E+00  0.1600E+01
