    5    5   10    1
  0.1981115E+03  0.1013759E-08  0.9968928E-09  0.9807630E-09  0.5000000E-15
  1.000000000000000E-004
  CAR 
 unknown system                          
      8      4      8
 
  0.2500000E+00  0.2500000E+00  0.2500000E+00  0.2500000E+00
    1      -16.846975   1.000000
    2       -9.353324   1.000000
    3       -9.240969   1.000000
    4       -9.206807   1.000000
    5       -0.309346   0.000000
    6        0.571917   0.000000
    7        0.671714   0.000000
    8        0.704756   0.000000
 
 -0.2500000E+00  0.2500000E+00  0.2500000E+00  0.2500000E+00
    1      -16.846944   1.000000
    2       -9.353348   1.000000
    3       -9.240908   1.000000
    4       -9.206857   1.000000
    5       -0.316164   0.000000
    6        0.589076   0.000000
    7        0.687573   0.000000
    8        0.717850   0.000000
 
  0.2500000E+00 -0.2500000E+00  0.2500000E+00  0.2500000E+00
    1      -16.846997   1.000000
    2       -9.353394   1.000000
    3       -9.241013   1.000000
    4       -9.206853   1.000000
    5       -0.318114   0.000000
    6        0.591723   0.000000
    7        0.688580   0.000000
    8        0.727512   0.000000
 
 -0.2500000E+00 -0.2500000E+00  0.2500000E+00  0.2500000E+00
    1      -16.846998   1.000000
    2       -9.353395   1.000000
    3       -9.241063   1.000000
    4       -9.206831   1.000000
    5       -0.316638   0.000000
    6        0.584828   0.000000
    7        0.685287   0.000000
    8        0.727908   0.000000
