 running on   16 total cores
 distrk:  each k-point on   16 cores,    1 groups
 distr:  one band on    4 cores,    4 groups
 using from now: INCAR     
 vasp.5.4.4.18Apr17-6-g9f103f2a35 (build Nov 25 2021 15:25:00) complex          
  
 POSCAR found type information on POSCAR  H  C 
 POSCAR found :  2 types and       5 ions
 scaLAPACK will be used
 LDA part: xc-table for Pade appr. of Perdew
 POSCAR found type information on POSCAR  H  C 
 POSCAR found :  2 types and       5 ions
 generate k-points for:    2    2    2
 POSCAR, INCAR and KPOINTS ok, starting setup
 FFT: planning ...
 WAVECAR not read
 prediction of wavefunctions initialized - no I/O
 entering main loop
       N       E                     dE             d eps       ncg     rms          rms(c)
DAV:   1     0.888453233416E+01    0.88845E+01   -0.20457E+03   104   0.412E+02
DAV:   2    -0.241490905335E+02   -0.33034E+02   -0.33034E+02    64   0.112E+02
DAV:   3    -0.274862749731E+02   -0.33372E+01   -0.33372E+01    80   0.410E+01
DAV:   4    -0.276060931104E+02   -0.11982E+00   -0.11982E+00   120   0.764E+00
DAV:   5    -0.276061258776E+02   -0.32767E-04   -0.32767E-04   104   0.141E-01    0.880E+00
RMM:   6    -0.246598192471E+02    0.29463E+01   -0.54669E+00    64   0.143E+01    0.433E+00
RMM:   7    -0.241581688002E+02    0.50165E+00   -0.12554E+00    64   0.649E+00    0.230E+00
RMM:   8    -0.240111463261E+02    0.14702E+00   -0.16240E-01    64   0.289E+00    0.225E-01
RMM:   9    -0.240054809005E+02    0.56654E-02   -0.11115E-02    64   0.700E-01    0.196E-01
RMM:  10    -0.239993815831E+02    0.60993E-02   -0.24036E-02    64   0.847E-01    0.278E-01
RMM:  11    -0.239999957547E+02   -0.61417E-03   -0.72364E-03    64   0.534E-01    0.736E-02
RMM:  12    -0.240097778548E+02   -0.97821E-02   -0.39382E-03    64   0.388E-01    0.127E-01
RMM:  13    -0.240101961398E+02   -0.41828E-03   -0.85321E-04    64   0.164E-01    0.564E-02
RMM:  14    -0.240130443967E+02   -0.28483E-02   -0.17583E-03    64   0.258E-01    0.396E-02
RMM:  15    -0.240132690545E+02   -0.22466E-03   -0.10747E-04    64   0.645E-02    0.137E-02
RMM:  16    -0.240134743084E+02   -0.20525E-03   -0.11506E-04    64   0.661E-02    0.105E-02
RMM:  17    -0.240135006838E+02   -0.26375E-04   -0.37107E-05    64   0.345E-02    0.346E-03
RMM:  18    -0.240135145177E+02   -0.13834E-04   -0.18021E-06    48   0.932E-03    0.796E-04
RMM:  19    -0.240135178083E+02   -0.32906E-05   -0.64877E-07    48   0.504E-03    0.231E-04
RMM:  20    -0.240135189851E+02   -0.11768E-05   -0.11600E-07    44   0.258E-03    0.184E-04
RMM:  21    -0.240135192992E+02   -0.31406E-06   -0.37273E-08    41   0.168E-03
    1 T=     1. E= -.24013260E+02 F= -.24013519E+02 E0= -.24013519E+02  EK= 0.25929E-03 SP= 0.00E+00 SK= 0.00E+00
 bond charge predicted
       N       E                     dE             d eps       ncg     rms          rms(c)
DAV:   1    -0.240154969379E+02   -0.19780E-02   -0.21735E-03    80   0.454E-01    0.201E-02
RMM:   2    -0.240154942656E+02    0.26723E-05   -0.65205E-05    64   0.687E-02    0.127E-02
RMM:   3    -0.240154934172E+02    0.84843E-06   -0.14087E-05    64   0.270E-02    0.380E-03
RMM:   4    -0.240154933117E+02    0.10553E-06   -0.45108E-07    48   0.615E-03
    2 T=     4. E= -.24013299E+02 F= -.24015493E+02 E0= -.24015493E+02  EK= 0.21944E-02 SP= 0.00E+00 SK= 0.00E+00
 bond charge predicted
 prediction of wavefunctions
       N       E                     dE             d eps       ncg     rms          rms(c)
DAV:   1    -0.240188151719E+02   -0.33218E-02   -0.17067E-03    64   0.421E-01    0.836E-03
RMM:   2    -0.240188262629E+02   -0.11091E-04   -0.11360E-04    64   0.902E-02    0.265E-03
RMM:   3    -0.240188273250E+02   -0.10621E-05   -0.44564E-06    52   0.182E-02    0.228E-03
RMM:   4    -0.240188275271E+02   -0.20211E-06   -0.66830E-07    48   0.787E-03
    3 T=    11. E= -.24013362E+02 F= -.24018828E+02 E0= -.24018828E+02  EK= 0.54656E-02 SP= 0.00E+00 SK= 0.00E+00
 bond charge predicted
 prediction of wavefunctions
       N       E                     dE             d eps       ncg     rms          rms(c)
DAV:   1    -0.240225143556E+02   -0.36870E-02   -0.56506E-04    64   0.215E-01    0.741E-03
RMM:   2    -0.240225151740E+02   -0.81840E-06   -0.23683E-05    64   0.398E-02    0.561E-03
RMM:   3    -0.240225152309E+02   -0.56885E-07   -0.38908E-06    60   0.130E-02    0.233E-03
RMM:   4    -0.240225155326E+02   -0.30165E-06   -0.16549E-07    48   0.380E-03
    4 T=    18. E= -.24013431E+02 F= -.24022516E+02 E0= -.24022516E+02  EK= 0.90843E-02 SP= 0.00E+00 SK= 0.00E+00
 bond charge predicted
 prediction of wavefunctions
       N       E                     dE             d eps       ncg     rms          rms(c)
DAV:   1    -0.240254559146E+02   -0.29407E-02   -0.76266E-04    64   0.261E-01    0.646E-03
RMM:   2    -0.240254595503E+02   -0.36358E-05   -0.18360E-05    64   0.356E-02    0.432E-03
RMM:   3    -0.240254609699E+02   -0.14196E-05   -0.49400E-07    48   0.645E-03    0.269E-03
RMM:   4    -0.240254641347E+02   -0.31648E-05   -0.16860E-06    48   0.793E-03    0.946E-04
RMM:   5    -0.240254649955E+02   -0.86073E-06   -0.15693E-07    48   0.327E-03
    5 T=    23. E= -.24013479E+02 F= -.24025465E+02 E0= -.24025465E+02  EK= 0.11986E-01 SP= 0.00E+00 SK= 0.00E+00
 bond charge predicted
 prediction of wavefunctions
       N       E                     dE             d eps       ncg     rms          rms(c)
DAV:   1    -0.240268568422E+02   -0.13927E-02   -0.89592E-04    64   0.279E-01    0.400E-03
RMM:   2    -0.240268599365E+02   -0.30942E-05   -0.71280E-06    62   0.203E-02    0.263E-03
RMM:   3    -0.240268635565E+02   -0.36200E-05   -0.84754E-07    48   0.737E-03    0.121E-03
RMM:   4    -0.240268668951E+02   -0.33386E-05   -0.24885E-07    48   0.425E-03    0.590E-04
RMM:   5    -0.240268717513E+02   -0.48562E-05   -0.19437E-07    47   0.286E-03    0.247E-04
RMM:   6    -0.240268736903E+02   -0.19390E-05   -0.90696E-08    44   0.187E-03    0.252E-04
RMM:   7    -0.240268760900E+02   -0.23997E-05   -0.12166E-07    45   0.194E-03    0.148E-04
RMM:   8    -0.240268764253E+02   -0.33523E-06    0.00000E+00    32   0.130E-03
    6 T=    26. E= -.24013503E+02 F= -.24026876E+02 E0= -.24026876E+02  EK= 0.13374E-01 SP= 0.00E+00 SK= 0.00E+00
 bond charge predicted
 prediction of wavefunctions
       N       E                     dE             d eps       ncg     rms          rms(c)
DAV:   1    -0.240264246621E+02    0.45143E-03   -0.84008E-04    64   0.281E-01    0.307E-03
RMM:   2    -0.240264282242E+02   -0.35621E-05   -0.66450E-06    64   0.195E-02    0.110E-03
RMM:   3    -0.240264317120E+02   -0.34879E-05   -0.44966E-07    48   0.549E-03    0.651E-04
RMM:   4    -0.240264372412E+02   -0.55292E-05   -0.22039E-07    48   0.316E-03    0.257E-04
RMM:   5    -0.240264451877E+02   -0.79464E-05   -0.53363E-07    44   0.362E-03    0.366E-04
RMM:   6    -0.240264475945E+02   -0.24068E-05   -0.22577E-07    45   0.253E-03    0.983E-05
RMM:   7    -0.240264482046E+02   -0.61015E-06   -0.40513E-08    40   0.173E-03
    7 T=    25. E= -.24013481E+02 F= -.24026448E+02 E0= -.24026448E+02  EK= 0.12967E-01 SP= 0.00E+00 SK= 0.00E+00
 bond charge predicted
 prediction of wavefunctions
       N       E                     dE             d eps       ncg     rms          rms(c)
DAV:   1    -0.240245008867E+02    0.19467E-02   -0.73336E-04    80   0.254E-01    0.109E-03
RMM:   2    -0.240245023714E+02   -0.14847E-05   -0.36586E-06    57   0.195E-02    0.922E-04
RMM:   3    -0.240245028695E+02   -0.49816E-06   -0.17918E-07    48   0.424E-03    0.766E-04
RMM:   4    -0.240245040781E+02   -0.12086E-05   -0.10572E-07    45   0.274E-03    0.234E-04
RMM:   5    -0.240245047887E+02   -0.71056E-06   -0.41372E-08    41   0.189E-03
    8 T=    21. E= -.24013427E+02 F= -.24024505E+02 E0= -.24024505E+02  EK= 0.11078E-01 SP= 0.00E+00 SK= 0.00E+00
 bond charge predicted
 prediction of wavefunctions
       N       E                     dE             d eps       ncg     rms          rms(c)
DAV:   1    -0.240218539181E+02    0.26502E-02   -0.49191E-04    72   0.208E-01    0.102E-03
RMM:   2    -0.240218550339E+02   -0.11158E-05   -0.35851E-06    58   0.199E-02    0.106E-03
RMM:   3    -0.240218553225E+02   -0.28854E-06   -0.13623E-07    47   0.327E-03    0.900E-04
RMM:   4    -0.240218566546E+02   -0.13321E-05   -0.22725E-07    48   0.320E-03    0.230E-04
RMM:   5    -0.240218568018E+02   -0.14725E-06   -0.42026E-09    34   0.142E-03
    9 T=    16. E= -.24013361E+02 F= -.24021857E+02 E0= -.24021857E+02  EK= 0.84962E-02 SP= 0.00E+00 SK= 0.00E+00
 bond charge predicted
 prediction of wavefunctions
       N       E                     dE             d eps       ncg     rms          rms(c)
DAV:   1    -0.240195239021E+02    0.23328E-02   -0.24197E-04    64   0.158E-01    0.287E-03
RMM:   2    -0.240195241616E+02   -0.25946E-06   -0.34434E-06    57   0.193E-02    0.185E-03
RMM:   3    -0.240195244714E+02   -0.30985E-06   -0.97173E-07    48   0.725E-03    0.300E-04
RMM:   4    -0.240195246755E+02   -0.20408E-06   -0.14202E-07    48   0.382E-03
   10 T=    12. E= -.24013305E+02 F= -.24019525E+02 E0= -.24019525E+02  EK= 0.62193E-02 SP= 0.00E+00 SK= 0.00E+00
 bond charge predicted
 prediction of wavefunctions
 wavefunctions rotated
