 vasp.5.4.4.18Apr17-6-g9f103f2a35 (build Nov 25 2021 15:25:00) complex          
  
 executed on             LinuxIFC date 2022.02.21  10:17:45
 running on   16 total cores
 distrk:  each k-point on   16 cores,    1 groups
 distr:  one band on NCORES_PER_BAND=   4 cores,    4 groups


--------------------------------------------------------------------------------------------------------


 INCAR:
 POTCAR:    PAW_PBE H 15Jun2001                   
 POTCAR:    PAW_PBE C 08Apr2002                   
 POTCAR:    PAW_PBE H 15Jun2001                   
   VRHFIN =H: ultrasoft test                                                    
   LEXCH  = PE                                                                  
   EATOM  =    12.4884 eV,    0.9179 Ry                                         
                                                                                
   TITEL  = PAW_PBE H 15Jun2001                                                 
   LULTRA =        F    use ultrasoft PP ?                                      
   IUNSCR =        0    unscreen: 0-lin 1-nonlin 2-no                           
   RPACOR =    0.000    partial core radius                                     
   POMASS =    1.000; ZVAL   =    1.000    mass and valenz                      
   RCORE  =    1.100    outmost cutoff radius                                   
   RWIGS  =    0.700; RWIGS  =    0.370    wigner-seitz radius (au A)           
   ENMAX  =  250.000; ENMIN  =  200.000 eV                                      
   RCLOC  =    0.701    cutoff for local pot                                    
   LCOR   =        T    correct aug charges                                     
   LPAW   =        T    paw PP                                                  
   EAUG   =  400.000                                                            
   RMAX   =    1.123    core radius for proj-oper                               
   RAUG   =    1.200    factor for augmentation sphere                          
   RDEP   =    1.112    radius for radial grids                                 
   RDEPT  =    0.926    core radius for aug-charge                              
                                                                                
   Atomic configuration                                                         
    2 entries                                                                   
     n  l   j            E        occ.                                          
     1  0  0.50        -6.4927   1.0000                                         
     2  1  0.50        -3.4015   0.0000                                         
   Description                                                                  
     l       E           TYP  RCUT    TYP  RCUT                                 
     0     -6.4927494     23  1.100                                             
     0      6.8029130     23  1.100                                             
     1     -4.0817478     23  1.100                                             
  local pseudopotential read in
  atomic valenz-charges read in
  non local Contribution for L=           0  read in
    real space projection operators read in
  non local Contribution for L=           0  read in
    real space projection operators read in
  non local Contribution for L=           1  read in
    real space projection operators read in
    PAW grid and wavefunctions read in
 
   number of l-projection  operators is LMAX  =           3
   number of lm-projection operators is LMMAX =           5
 
 POTCAR:    PAW_PBE C 08Apr2002                   
   VRHFIN =C: s2p2                                                              
   LEXCH  = PE                                                                  
   EATOM  =   147.1560 eV,   10.8157 Ry                                         
                                                                                
   TITEL  = PAW_PBE C 08Apr2002                                                 
   LULTRA =        F    use ultrasoft PP ?                                      
   IUNSCR =        1    unscreen: 0-lin 1-nonlin 2-no                           
   RPACOR =    1.200    partial core radius                                     
   POMASS =   12.011; ZVAL   =    4.000    mass and valenz                      
   RCORE  =    1.500    outmost cutoff radius                                   
   RWIGS  =    1.630; RWIGS  =    0.863    wigner-seitz radius (au A)           
   ENMAX  =  400.000; ENMIN  =  300.000 eV                                      
   ICORE  =        2    local potential                                         
   LCOR   =        T    correct aug charges                                     
   LPAW   =        T    paw PP                                                  
   EAUG   =  644.873                                                            
   DEXC   =    0.000                                                            
   RMAX   =    1.529    core radius for proj-oper                               
   RAUG   =    1.300    factor for augmentation sphere                          
   RDEP   =    1.501    radius for radial grids                                 
   RDEPT  =    1.300    core radius for aug-charge                              
                                                                                
   Atomic configuration                                                         
    4 entries                                                                   
     n  l   j            E        occ.                                          
     1  0  0.50      -273.3789   2.0000                                         
     2  0  0.50       -13.7508   2.0000                                         
     2  1  0.50        -5.2854   2.0000                                         
     3  2  1.50        -5.4423   0.0000                                         
   Description                                                                  
     l       E           TYP  RCUT    TYP  RCUT                                 
     0    -13.7508458     23  1.200                                             
     0     -8.2022199     23  1.200                                             
     1     -5.2854383     23  1.500                                             
     1     34.0145650     23  1.500                                             
     2     -5.4423304      7  1.500                                             
  local pseudopotential read in
  partial core-charges read in
  partial kinetic energy density read in
  atomic valenz-charges read in
  non local Contribution for L=           0  read in
    real space projection operators read in
  non local Contribution for L=           0  read in
    real space projection operators read in
  non local Contribution for L=           1  read in
    real space projection operators read in
  non local Contribution for L=           1  read in
    real space projection operators read in
    PAW grid and wavefunctions read in
 
   number of l-projection  operators is LMAX  =           4
   number of lm-projection operators is LMMAX =           8
 
  PAW_PBE H 15Jun2001                   :
 energy of atom  1       EATOM=  -12.4884
 kinetic energy error for atom=    0.0098 (will be added to EATOM!!)
  PAW_PBE C 08Apr2002                   :
 energy of atom  2       EATOM= -147.1560
 kinetic energy error for atom=    0.0288 (will be added to EATOM!!)
 
 
 POSCAR:  H  C                                   
  positions in cartesian coordinates
  No initial velocities read in
 exchange correlation table for  LEXCH =        8
   RHO(1)=    0.500       N(1)  =     2000
   RHO(2)=  100.500       N(2)  =     4000

 VTST: version 3.2, (02/03/18)

 CHAIN: initializing optimizer
 
 OPT: Using VASP Dynamics algorithm
 CHAIN: Read ICHAIN            0
 
 POSCAR:  H  C                                   
  positions in cartesian coordinates
  No initial velocities read in
 


--------------------------------------------------------------------------------------------------------


 ion  position               nearest neighbor table
   1  0.538  0.407  0.360-   5 1.08
   2  0.395  0.480  0.438-   5 1.11
   3  0.552  0.566  0.443-   5 1.09
   4  0.528  0.416  0.539-   5 1.08
   5  0.503  0.467  0.445-   4 1.08   1 1.08   3 1.09   2 1.11
 

IMPORTANT INFORMATION: All symmetrisations will be switched off!
NOSYMM: (Re-)initialisation of all symmetry stuff for point group C_1.

 
 

Automatic generation of k-mesh.
 generate k-points for:    2    2    2
Space group operators:
 irot       det(A)        alpha          n_x          n_y          n_z        tau_x        tau_y        tau_z
    1     1.000000     0.000000     1.000000     0.000000     0.000000     0.000000     0.000000     0.000000
 
 Subroutine IBZKPT returns following result:
 ===========================================
 
 Found      4 irreducible k-points:
 
 Following reciprocal coordinates:
            Coordinates               Weight
  0.250000  0.250000  0.250000      2.000000
 -0.250000  0.250000  0.250000      2.000000
  0.250000 -0.250000  0.250000      2.000000
 -0.250000 -0.250000  0.250000      2.000000
 
 Following cartesian coordinates:
            Coordinates               Weight
  0.024661  0.025645  0.026429      2.000000
 -0.024661  0.024524  0.025711      2.000000
  0.024661 -0.024524  0.025288      2.000000
 -0.024661 -0.025645  0.024570      2.000000
 


--------------------------------------------------------------------------------------------------------




 Dimension of arrays:
   k-points           NKPTS =      4   k-points in BZ     NKDIM =      4   number of bands    NBANDS=      8
   number of dos      NEDOS =    301   number of ions     NIONS =      5
   non local maximal  LDIM  =      4   non local SUM 2l+1 LMDIM =      8
   total plane-waves  NPLWV = 313600
   max r-space proj   IRMAX =      1   max aug-charges    IRDMAX=   3935
   dimension x,y,z NGX =    70 NGY =   70 NGZ =   64
   dimension x,y,z NGXF=   140 NGYF=  140 NGZF=  128
   support grid    NGXF=   140 NGYF=  140 NGZF=  128
   ions per type =               4   1
   NGX,Y,Z   is equivalent  to a cutoff of  11.48, 11.67, 10.85 a.u.
   NGXF,Y,Z  is equivalent  to a cutoff of  22.96, 23.35, 21.70 a.u.

 SYSTEM =  unknown system                          
 POSCAR =   H  C                                   

 Startparameter for this run:
   NWRITE =      2    write-flag & timer
   PREC   = a         normal or accurate (medium, high low for compatibility)
   ISTART =      0    job   : 0-new  1-cont  2-samecut
   ICHARG =      2    charge: 1-file 2-atom 10-const
   ISPIN  =      1    spin polarized calculation?
   LNONCOLLINEAR =      F non collinear calculations
   LSORBIT =      F    spin-orbit coupling
   INIWAV =      1    electr: 0-lowe 1-rand  2-diag
   LASPH  =      F    aspherical Exc in radial PAW
   METAGGA=      F    non-selfconsistent MetaGGA calc.

 Electronic Relaxation 1
   ENCUT  =  400.0 eV  29.40 Ry    5.42 a.u.  16.53 16.26 15.99*2*pi/ulx,y,z
   ENINI  =  400.0     initial cutoff
   ENAUG  =  644.9 eV  augmentation charge cutoff
   NELM   =    120;   NELMIN=  4; NELMDL= -5     # of ELM steps 
   EDIFF  = 0.1E-05   stopping-criterion for ELM
   LREAL  =      F    real-space projection
   NLSPLINE    = F    spline interpolate recip. space projectors
   LCOMPAT=      F    compatible to vasp.4.4
   GGA_COMPAT  = T    GGA compatible to vasp.4.4-vasp.4.6
   LMAXPAW     = -100 max onsite density
   LMAXMIX     =    2 max onsite mixed and CHGCAR
   VOSKOWN=      0    Vosko Wilk Nusair interpolation
   ROPT   =    0.00000   0.00000
 Ionic relaxation
   EDIFFG = 0.1E-04   stopping-criterion for IOM
   NSW    =     10    number of steps for IOM
   NBLOCK =      1;   KBLOCK =     10    inner block; outer block 
   IBRION =      0    ionic relax: 0-MD 1-quasi-New 2-CG
   NFREE  =      0    steps in history (QN), initial steepest desc. (CG)
   ISIF   =      2    stress and relaxation
   IWAVPR =     12    prediction:  0-non 1-charg 2-wave 3-comb
   ISYM   =      0    0-nonsym 1-usesym 2-fastsym
   LCORR  =      T    Harris-Foulkes like correction to forces

   POTIM  = 0.5000    time-step for ionic-motion
   TEIN   =    0.0    initial temperature
   TEBEG  =    0.0;   TEEND  =   0.0 temperature during run
   SMASS  =  -3.00    Nose mass-parameter (am)
   estimated Nose-frequenzy (Omega)   =  0.10E-29 period in steps =****** mass=  -0.235E-26a.u.
   SCALEE = 1.0000    scale energy and forces
   NPACO  =    256;   APACO  = 16.0  distance and # of slots for P.C.
   PSTRESS=    0.0 pullay stress

  Mass of Ions in am
   POMASS =   1.00 12.01
  Ionic Valenz
   ZVAL   =   1.00  4.00
  Atomic Wigner-Seitz radii
   RWIGS  =  -1.00 -1.00
  virtual crystal weights 
   VCA    =   1.00  1.00
   NELECT =       8.0000    total number of electrons
   NUPDOWN=      -1.0000    fix difference up-down

 DOS related values:
   EMIN   =  10.00;   EMAX   =-10.00  energy-range for DOS
   EFERMI =   0.00
   ISMEAR =     0;   SIGMA  =   0.20  broadening in eV -4-tet -1-fermi 0-gaus

 Electronic relaxation 2 (details)
   IALGO  =     68    algorithm
   LDIAG  =      T    sub-space diagonalisation (order eigenvalues)
   LSUBROT=      F    optimize rotation matrix (better conditioning)
   TURBO    =      0    0=normal 1=particle mesh
   IRESTART =      0    0=no restart 2=restart with 2 vectors
   NREBOOT  =      0    no. of reboots
   NMIN     =      0    reboot dimension
   EREF     =   0.00    reference energy to select bands
   IMIX   =      4    mixing-type and parameters
     AMIX     =   0.40;   BMIX     =  1.00
     AMIX_MAG =   1.60;   BMIX_MAG =  1.00
     AMIN     =   0.10
     WC   =   100.;   INIMIX=   1;  MIXPRE=   1;  MAXMIX= -45

 Intra band minimization:
   WEIMIN = 0.0010     energy-eigenvalue tresh-hold
   EBREAK =  0.31E-07  absolut break condition
   DEPER  =   0.30     relativ break condition  

   TIME   =   0.40     timestep for ELM

  volume/ion in A,a.u.               =     198.11      1336.92
  Fermi-wavevector in a.u.,A,eV,Ry     =   0.328457  0.620693  1.467849  0.107884
  Thomas-Fermi vector in A             =   1.222061
 
 Write flags
   LWAVE        =      F    write WAVECAR
   LDOWNSAMPLE  =      F    k-point downsampling of WAVECAR
   LCHARG       =      F    write CHGCAR
   LVTOT        =      F    write LOCPOT, total local potential
   LVHAR        =      F    write LOCPOT, Hartree potential only
   LELF         =      F    write electronic localiz. function (ELF)
   LORBIT       =      0    0 simple, 1 ext, 2 COOP (PROOUT), +10 PAW based schemes


 Dipole corrections
   LMONO  =      F    monopole corrections only (constant potential shift)
   LDIPOL =      F    correct potential (dipole corrections)
   IDIPOL =      0    1-x, 2-y, 3-z, 4-all directions 
   EPSILON=  1.0000000 bulk dielectric constant

 Exchange correlation treatment:
   GGA     =    --    GGA type
   LEXCH   =     8    internal setting for exchange type
   VOSKOWN=      0    Vosko Wilk Nusair interpolation
   LHFCALC =     F    Hartree Fock is set to
   LHFONE  =     F    Hartree Fock one center treatment
   AEXX    =    0.0000 exact exchange contribution

 Linear response parameters
   LEPSILON=     F    determine dielectric tensor
   LRPA    =     F    only Hartree local field effects (RPA)
   LNABLA  =     F    use nabla operator in PAW spheres
   LVEL    =     F    velocity operator in full k-point grid
   LINTERFAST=   F  fast interpolation
   KINTER  =     0    interpolate to denser k-point grid
   CSHIFT  =0.1000    complex shift for real part using Kramers Kronig
   OMEGAMAX=  -1.0    maximum frequency
   DEG_THRESHOLD= 0.2000000E-02 threshold for treating states as degnerate
   RTIME   =   -0.100 relaxation time in fs
  (WPLASMAI=    0.000 imaginary part of plasma frequency in eV, 0.658/RTIME)
   DFIELD  = 0.0000000 0.0000000 0.0000000 field for delta impulse in time
 
 Orbital magnetization related:
   ORBITALMAG=     F  switch on orbital magnetization
   LCHIMAG   =     F  perturbation theory with respect to B field
   DQ        =  0.001000  dq finite difference perturbation B field
   LLRAUG    =     F  two centre corrections for induced B field



--------------------------------------------------------------------------------------------------------


 molecular dynamics for ions
   using a microcanonical ensemble
 charge density and potential will be updated during run
 non-spin polarized calculation
 RMM-DIIS sequential band-by-band and
  variant of blocked Davidson during initial phase
 perform sub-space diagonalisation
    before iterative eigenvector-optimisation
 modified Broyden-mixing scheme, WC =      100.0
 initial mixing is a Kerker type mixing with AMIX =  0.4000 and BMIX =      1.0000
 Hartree-type preconditioning will be used
 using additional bands            4
 reciprocal scheme for non local part
 use partial core corrections
 calculate Harris-corrections to forces 
   (improved forces if not selfconsistent)
 use gradient corrections 
 use of overlap-Matrix (Vanderbilt PP)
 Gauss-broadening in eV      SIGMA  =   0.20


--------------------------------------------------------------------------------------------------------


  energy-cutoff  :      400.00
  volume of cell :      990.56
      direct lattice vectors                 reciprocal lattice vectors
    10.137586422  0.000000000  0.000000000     0.098642809  0.002243321  0.001436922
    -0.226653359  9.966351330  0.000000000     0.000000000  0.100337623  0.002282124
    -0.137744751 -0.222989514  9.804126698     0.000000000  0.000000000  0.101997866

  length of vectors
    10.137586422  9.968928256  9.807629594     0.098678777  0.100363572  0.101997866


 
 k-points in units of 2pi/SCALE and weight: read from INCAR                         
   0.02466070  0.02564524  0.02642923       0.250
  -0.02466070  0.02452358  0.02571077       0.250
   0.02466070 -0.02452358  0.02528817       0.250
  -0.02466070 -0.02564524  0.02456970       0.250
 
 k-points in reciprocal lattice and weights: read from INCAR                         
   0.25000000  0.25000000  0.25000000       0.250
  -0.25000000  0.25000000  0.25000000       0.250
   0.25000000 -0.25000000  0.25000000       0.250
  -0.25000000 -0.25000000  0.25000000       0.250
 
 position of ions in fractional coordinates (direct lattice) 
   0.53821640  0.40679835  0.36049468
   0.39474579  0.47979817  0.43808212
   0.55204041  0.56550125  0.44268127
   0.52849619  0.41624360  0.53854428
   0.50340983  0.46713483  0.44549525
 
 position of ions in cartesian coordinates  (Angst):
   5.31435683  3.97390879  3.53433552
   3.83267821  4.68414944  4.29501258
   5.40720763  5.53727081  4.34010328
   5.18915116  4.02834019  5.27995635
   4.93611840  4.55628907  4.36769191
 


--------------------------------------------------------------------------------------------------------


 k-point  1 :   0.2500 0.2500 0.2500  plane waves:   17988
 k-point  2 :  -0.2500 0.2500 0.2500  plane waves:   17979
 k-point  3 :   0.2500-0.2500 0.2500  plane waves:   18002
 k-point  4 :  -0.2500-0.2500 0.2500  plane waves:   18000

 maximum and minimum number of plane-waves per node :      4518     4452

 maximum number of plane-waves:     18002
 maximum index in each direction: 
   IXMAX=   16   IYMAX=   16   IZMAX=   15
   IXMIN=  -16   IYMIN=  -16   IZMIN=  -16


 parallel 3D FFT for wavefunctions:
    minimum data exchange during FFTs selected (reduces bandwidth)
 parallel 3D FFT for charge:
    minimum data exchange during FFTs selected (reduces bandwidth)


 total amount of memory used by VASP MPI-rank0    53486. kBytes
=======================================================================

   base      :      30000. kBytes
   nonl-proj :       2671. kBytes
   fftplans  :       7852. kBytes
   grid      :      12378. kBytes
   one-center:          6. kBytes
   wavefun   :        579. kBytes
 
     INWAV:  cpu time    0.0000: real time    0.0001
 Broyden mixing: mesh for mixing (old mesh)
   NGX = 33   NGY = 33   NGZ = 31
  (NGX  =140   NGY  =140   NGZ  =128)
  gives a total of  33759 points

 initial charge density was supplied:
 charge density of overlapping atoms calculated
 number of electron       8.0000000 magnetization 
 keeping initial charge density in first step


--------------------------------------------------------------------------------------------------------


 Maximum index for augmentation-charges          163 (set IRDMAX)


--------------------------------------------------------------------------------------------------------


 First call to EWALD:  gamma=   0.178
 Maximum number of real-space cells 3x 3x 3
 Maximum number of reciprocal cells 3x 3x 3

    FEWALD:  cpu time    0.0030: real time    0.0029


--------------------------------------- Iteration      1(   1)  ---------------------------------------


    POTLOK:  cpu time    0.1613: real time    0.1715
    SETDIJ:  cpu time    0.0037: real time    0.0050
     EDDAV:  cpu time    0.2187: real time    0.2509
       DOS:  cpu time    0.0003: real time    0.0011
    --------------------------------------------
      LOOP:  cpu time    0.3840: real time    0.4285

 eigenvalue-minimisations  :   104
 total energy-change (2. order) : 0.8884532E+01  (-0.2045734E+03)
 number of electron       8.0000000 magnetization 
 augmentation part        8.0000000 magnetization 

 Free energy of the ion-electron system (eV)
  ---------------------------------------------------
  alpha Z        PSCENC =         0.24456006
  Ewald energy   TEWEN  =       129.35804907
  -Hartree energ DENC   =      -244.13413355
  -exchange      EXHF   =         0.00000000
  -V(xc)+E(xc)   XCENC  =        22.03396520
  PAW double counting   =       117.05815612     -117.66307307
  entropy T*S    EENTRO =        -0.00000000
  eigenvalues    EBANDS =       -95.05474604
  atomic energy  EATOM  =       197.04175453
  Solvation  Ediel_sol  =         0.00000000
  ---------------------------------------------------
  free energy    TOTEN  =         8.88453233 eV

  energy without entropy =        8.88453233  energy(sigma->0) =        8.88453233


--------------------------------------------------------------------------------------------------------




--------------------------------------- Iteration      1(   2)  ---------------------------------------


     EDDAV:  cpu time    0.1506: real time    0.1567
       DOS:  cpu time    0.0003: real time    0.0003
    --------------------------------------------
      LOOP:  cpu time    0.1509: real time    0.1571

 eigenvalue-minimisations  :    64
 total energy-change (2. order) :-0.3303362E+02  (-0.3303362E+02)
 number of electron       8.0000000 magnetization 
 augmentation part        8.0000000 magnetization 

 Free energy of the ion-electron system (eV)
  ---------------------------------------------------
  alpha Z        PSCENC =         0.24456006
  Ewald energy   TEWEN  =       129.35804907
  -Hartree energ DENC   =      -244.13413355
  -exchange      EXHF   =         0.00000000
  -V(xc)+E(xc)   XCENC  =        22.03396520
  PAW double counting   =       117.05815612     -117.66307307
  entropy T*S    EENTRO =        -0.00000000
  eigenvalues    EBANDS =      -128.08836890
  atomic energy  EATOM  =       197.04175453
  Solvation  Ediel_sol  =         0.00000000
  ---------------------------------------------------
  free energy    TOTEN  =       -24.14909053 eV

  energy without entropy =      -24.14909053  energy(sigma->0) =      -24.14909053


--------------------------------------------------------------------------------------------------------




--------------------------------------- Iteration      1(   3)  ---------------------------------------


     EDDAV:  cpu time    0.1873: real time    0.1947
       DOS:  cpu time    0.0002: real time    0.0002
    --------------------------------------------
      LOOP:  cpu time    0.1875: real time    0.1948

 eigenvalue-minimisations  :    80
 total energy-change (2. order) :-0.3337184E+01  (-0.3337184E+01)
 number of electron       8.0000000 magnetization 
 augmentation part        8.0000000 magnetization 

 Free energy of the ion-electron system (eV)
  ---------------------------------------------------
  alpha Z        PSCENC =         0.24456006
  Ewald energy   TEWEN  =       129.35804907
  -Hartree energ DENC   =      -244.13413355
  -exchange      EXHF   =         0.00000000
  -V(xc)+E(xc)   XCENC  =        22.03396520
  PAW double counting   =       117.05815612     -117.66307307
  entropy T*S    EENTRO =        -0.00000000
  eigenvalues    EBANDS =      -131.42555334
  atomic energy  EATOM  =       197.04175453
  Solvation  Ediel_sol  =         0.00000000
  ---------------------------------------------------
  free energy    TOTEN  =       -27.48627497 eV

  energy without entropy =      -27.48627497  energy(sigma->0) =      -27.48627497


--------------------------------------------------------------------------------------------------------




--------------------------------------- Iteration      1(   4)  ---------------------------------------


     EDDAV:  cpu time    0.2369: real time    0.2460
       DOS:  cpu time    0.0005: real time    0.0005
    --------------------------------------------
      LOOP:  cpu time    0.2374: real time    0.2465

 eigenvalue-minimisations  :   120
 total energy-change (2. order) :-0.1198181E+00  (-0.1198181E+00)
 number of electron       8.0000000 magnetization 
 augmentation part        8.0000000 magnetization 

 Free energy of the ion-electron system (eV)
  ---------------------------------------------------
  alpha Z        PSCENC =         0.24456006
  Ewald energy   TEWEN  =       129.35804907
  -Hartree energ DENC   =      -244.13413355
  -exchange      EXHF   =         0.00000000
  -V(xc)+E(xc)   XCENC  =        22.03396520
  PAW double counting   =       117.05815612     -117.66307307
  entropy T*S    EENTRO =        -0.00000000
  eigenvalues    EBANDS =      -131.54537148
  atomic energy  EATOM  =       197.04175453
  Solvation  Ediel_sol  =         0.00000000
  ---------------------------------------------------
  free energy    TOTEN  =       -27.60609311 eV

  energy without entropy =      -27.60609311  energy(sigma->0) =      -27.60609311


--------------------------------------------------------------------------------------------------------




--------------------------------------- Iteration      1(   5)  ---------------------------------------


     EDDAV:  cpu time    0.2099: real time    0.2200
       DOS:  cpu time    0.0002: real time    0.0002
    CHARGE:  cpu time    0.0208: real time    0.0215
    MIXING:  cpu time    0.0042: real time    0.0043
    --------------------------------------------
      LOOP:  cpu time    0.2351: real time    0.2462

 eigenvalue-minimisations  :   104
 total energy-change (2. order) :-0.3276726E-04  (-0.3276737E-04)
 number of electron       8.0000002 magnetization 
 augmentation part        0.2269262 magnetization 

 Broyden mixing:
  rms(total) = 0.88005E+00    rms(broyden)= 0.87982E+00
  rms(prec ) = 0.12455E+01
  weight for this iteration     100.00

 Free energy of the ion-electron system (eV)
  ---------------------------------------------------
  alpha Z        PSCENC =         0.24456006
  Ewald energy   TEWEN  =       129.35804907
  -Hartree energ DENC   =      -244.13413355
  -exchange      EXHF   =         0.00000000
  -V(xc)+E(xc)   XCENC  =        22.03396520
  PAW double counting   =       117.05815612     -117.66307307
  entropy T*S    EENTRO =        -0.00000000
  eigenvalues    EBANDS =      -131.54540425
  atomic energy  EATOM  =       197.04175453
  Solvation  Ediel_sol  =         0.00000000
  ---------------------------------------------------
  free energy    TOTEN  =       -27.60612588 eV

  energy without entropy =      -27.60612588  energy(sigma->0) =      -27.60612588


--------------------------------------------------------------------------------------------------------




--------------------------------------- Iteration      1(   6)  ---------------------------------------


    POTLOK:  cpu time    0.1528: real time    0.1590
    SETDIJ:  cpu time    0.0017: real time    0.0018
    EDDIAG:  cpu time    0.0438: real time    0.0564
  RMM-DIIS:  cpu time    0.1596: real time    0.1659
    ORTHCH:  cpu time    0.0022: real time    0.0022
       DOS:  cpu time    0.0002: real time    0.0002
    CHARGE:  cpu time    0.0191: real time    0.0196
    MIXING:  cpu time    0.0047: real time    0.0066
    --------------------------------------------
      LOOP:  cpu time    0.3842: real time    0.4116

 eigenvalue-minimisations  :    64
 total energy-change (2. order) : 0.2946307E+01  (-0.5466918E+00)
 number of electron       8.0000001 magnetization 
 augmentation part        0.1999858 magnetization 

 Broyden mixing:
  rms(total) = 0.43295E+00    rms(broyden)= 0.43285E+00
  rms(prec ) = 0.56177E+00
  weight for this iteration     100.00

 eigenvalues of (default mixing * dielectric matrix)
  average eigenvalue GAMMA=   1.3083
  1.3083

 Free energy of the ion-electron system (eV)
  ---------------------------------------------------
  alpha Z        PSCENC =         0.24456006
  Ewald energy   TEWEN  =       129.35804907
  -Hartree energ DENC   =      -264.04015272
  -exchange      EXHF   =         0.00000000
  -V(xc)+E(xc)   XCENC  =        23.24244862
  PAW double counting   =       239.90034985     -240.68260308
  entropy T*S    EENTRO =        -0.00000000
  eigenvalues    EBANDS =      -109.72422558
  atomic energy  EATOM  =       197.04175453
  Solvation  Ediel_sol  =         0.00000000
  ---------------------------------------------------
  free energy    TOTEN  =       -24.65981925 eV

  energy without entropy =      -24.65981925  energy(sigma->0) =      -24.65981925


--------------------------------------------------------------------------------------------------------




--------------------------------------- Iteration      1(   7)  ---------------------------------------


    POTLOK:  cpu time    0.1438: real time    0.1486
    SETDIJ:  cpu time    0.0017: real time    0.0017
    EDDIAG:  cpu time    0.0376: real time    0.0391
  RMM-DIIS:  cpu time    0.1546: real time    0.1612
    ORTHCH:  cpu time    0.0015: real time    0.0015
       DOS:  cpu time    0.0002: real time    0.0002
    CHARGE:  cpu time    0.0183: real time    0.0188
    MIXING:  cpu time    0.0045: real time    0.0046
    --------------------------------------------
      LOOP:  cpu time    0.3620: real time    0.3757

 eigenvalue-minimisations  :    64
 total energy-change (2. order) : 0.5016504E+00  (-0.1255350E+00)
 number of electron       8.0000001 magnetization 
 augmentation part        0.1893081 magnetization 

 Broyden mixing:
  rms(total) = 0.22964E+00    rms(broyden)= 0.22958E+00
  rms(prec ) = 0.27721E+00
  weight for this iteration     100.00

 eigenvalues of (default mixing * dielectric matrix)
  average eigenvalue GAMMA=   1.8435
  1.4618  2.2253

 Free energy of the ion-electron system (eV)
  ---------------------------------------------------
  alpha Z        PSCENC =         0.24456006
  Ewald energy   TEWEN  =       129.35804907
  -Hartree energ DENC   =      -275.88076125
  -exchange      EXHF   =         0.00000000
  -V(xc)+E(xc)   XCENC  =        24.11057827
  PAW double counting   =       369.21235960     -370.03528758
  entropy T*S    EENTRO =        -0.00000000
  eigenvalues    EBANDS =       -98.20942151
  atomic energy  EATOM  =       197.04175453
  Solvation  Ediel_sol  =         0.00000000
  ---------------------------------------------------
  free energy    TOTEN  =       -24.15816880 eV

  energy without entropy =      -24.15816880  energy(sigma->0) =      -24.15816880


--------------------------------------------------------------------------------------------------------




--------------------------------------- Iteration      1(   8)  ---------------------------------------


    POTLOK:  cpu time    0.1381: real time    0.1424
    SETDIJ:  cpu time    0.0017: real time    0.0017
    EDDIAG:  cpu time    0.0389: real time    0.0400
  RMM-DIIS:  cpu time    0.1532: real time    0.1593
    ORTHCH:  cpu time    0.0017: real time    0.0017
       DOS:  cpu time    0.0002: real time    0.0002
    CHARGE:  cpu time    0.0182: real time    0.0188
    MIXING:  cpu time    0.0046: real time    0.0047
    --------------------------------------------
      LOOP:  cpu time    0.3567: real time    0.3689

 eigenvalue-minimisations  :    64
 total energy-change (2. order) : 0.1470225E+00  (-0.1624031E-01)
 number of electron       8.0000001 magnetization 
 augmentation part        0.1879169 magnetization 

 Broyden mixing:
  rms(total) = 0.22495E-01    rms(broyden)= 0.22470E-01
  rms(prec ) = 0.52680E-01
  weight for this iteration     100.00

 eigenvalues of (default mixing * dielectric matrix)
  average eigenvalue GAMMA=   1.5518
  2.2481  0.9944  1.4127

 Free energy of the ion-electron system (eV)
  ---------------------------------------------------
  alpha Z        PSCENC =         0.24456006
  Ewald energy   TEWEN  =       129.35804907
  -Hartree energ DENC   =      -281.29540916
  -exchange      EXHF   =         0.00000000
  -V(xc)+E(xc)   XCENC  =        24.64738275
  PAW double counting   =       480.32751409     -481.11829779
  entropy T*S    EENTRO =        -0.00000000
  eigenvalues    EBANDS =       -93.21669987
  atomic energy  EATOM  =       197.04175453
  Solvation  Ediel_sol  =         0.00000000
  ---------------------------------------------------
  free energy    TOTEN  =       -24.01114633 eV

  energy without entropy =      -24.01114633  energy(sigma->0) =      -24.01114633


--------------------------------------------------------------------------------------------------------




--------------------------------------- Iteration      1(   9)  ---------------------------------------


    POTLOK:  cpu time    0.1379: real time    0.1416
    SETDIJ:  cpu time    0.0017: real time    0.0018
    EDDIAG:  cpu time    0.0373: real time    0.0388
  RMM-DIIS:  cpu time    0.1548: real time    0.1603
    ORTHCH:  cpu time    0.0015: real time    0.0015
       DOS:  cpu time    0.0002: real time    0.0002
    CHARGE:  cpu time    0.0181: real time    0.0192
    MIXING:  cpu time    0.0047: real time    0.0048
    --------------------------------------------
      LOOP:  cpu time    0.3560: real time    0.3681

 eigenvalue-minimisations  :    64
 total energy-change (2. order) : 0.5665426E-02  (-0.1111483E-02)
 number of electron       8.0000001 magnetization 
 augmentation part        0.1873437 magnetization 

 Broyden mixing:
  rms(total) = 0.19641E-01    rms(broyden)= 0.19637E-01
  rms(prec ) = 0.40499E-01
  weight for this iteration     100.00

 eigenvalues of (default mixing * dielectric matrix)
  average eigenvalue GAMMA=   2.1000
  3.0906  2.9267  1.0027  1.3800

 Free energy of the ion-electron system (eV)
  ---------------------------------------------------
  alpha Z        PSCENC =         0.24456006
  Ewald energy   TEWEN  =       129.35804907
  -Hartree energ DENC   =      -282.55935934
  -exchange      EXHF   =         0.00000000
  -V(xc)+E(xc)   XCENC  =        24.71748444
  PAW double counting   =       483.92795759     -484.72135609
  entropy T*S    EENTRO =        -0.00000000
  eigenvalues    EBANDS =       -92.01457116
  atomic energy  EATOM  =       197.04175453
  Solvation  Ediel_sol  =         0.00000000
  ---------------------------------------------------
  free energy    TOTEN  =       -24.00548090 eV

  energy without entropy =      -24.00548090  energy(sigma->0) =      -24.00548090


--------------------------------------------------------------------------------------------------------




--------------------------------------- Iteration      1(  10)  ---------------------------------------


    POTLOK:  cpu time    0.1324: real time    0.1367
    SETDIJ:  cpu time    0.0017: real time    0.0018
    EDDIAG:  cpu time    0.0375: real time    0.0386
  RMM-DIIS:  cpu time    0.1546: real time    0.1612
    ORTHCH:  cpu time    0.0014: real time    0.0014
       DOS:  cpu time    0.0002: real time    0.0002
    CHARGE:  cpu time    0.0183: real time    0.0190
    MIXING:  cpu time    0.0051: real time    0.0062
    --------------------------------------------
      LOOP:  cpu time    0.3512: real time    0.3652

 eigenvalue-minimisations  :    64
 total energy-change (2. order) : 0.6099317E-02  (-0.2403598E-02)
 number of electron       8.0000001 magnetization 
 augmentation part        0.1863044 magnetization 

 Broyden mixing:
  rms(total) = 0.27843E-01    rms(broyden)= 0.27841E-01
  rms(prec ) = 0.35355E-01
  weight for this iteration     100.00

 eigenvalues of (default mixing * dielectric matrix)
  average eigenvalue GAMMA=   1.7817
  3.0680  2.4380  1.2131  1.2131  0.9765

 Free energy of the ion-electron system (eV)
  ---------------------------------------------------
  alpha Z        PSCENC =         0.24456006
  Ewald energy   TEWEN  =       129.35804907
  -Hartree energ DENC   =      -284.75656268
  -exchange      EXHF   =         0.00000000
  -V(xc)+E(xc)   XCENC  =        24.78712775
  PAW double counting   =       467.71558345     -468.51251931
  entropy T*S    EENTRO =        -0.00000000
  eigenvalues    EBANDS =       -89.87737445
  atomic energy  EATOM  =       197.04175453
  Solvation  Ediel_sol  =         0.00000000
  ---------------------------------------------------
  free energy    TOTEN  =       -23.99938158 eV

  energy without entropy =      -23.99938158  energy(sigma->0) =      -23.99938158


--------------------------------------------------------------------------------------------------------




--------------------------------------- Iteration      1(  11)  ---------------------------------------


    POTLOK:  cpu time    0.1320: real time    0.1373
    SETDIJ:  cpu time    0.0017: real time    0.0017
    EDDIAG:  cpu time    0.0384: real time    0.0396
  RMM-DIIS:  cpu time    0.1541: real time    0.1602
    ORTHCH:  cpu time    0.0019: real time    0.0019
       DOS:  cpu time    0.0002: real time    0.0003
    CHARGE:  cpu time    0.0177: real time    0.0185
    MIXING:  cpu time    0.0049: real time    0.0051
    --------------------------------------------
      LOOP:  cpu time    0.3508: real time    0.3644

 eigenvalue-minimisations  :    64
 total energy-change (2. order) :-0.6141716E-03  (-0.7236440E-03)
 number of electron       8.0000001 magnetization 
 augmentation part        0.1866406 magnetization 

 Broyden mixing:
  rms(total) = 0.73552E-02    rms(broyden)= 0.73516E-02
  rms(prec ) = 0.13416E-01
  weight for this iteration     100.00

 eigenvalues of (default mixing * dielectric matrix)
  average eigenvalue GAMMA=   2.2773
  4.8166  3.1066  2.4321  1.2981  1.0053  1.0053

 Free energy of the ion-electron system (eV)
  ---------------------------------------------------
  alpha Z        PSCENC =         0.24456006
  Ewald energy   TEWEN  =       129.35804907
  -Hartree energ DENC   =      -284.65934440
  -exchange      EXHF   =         0.00000000
  -V(xc)+E(xc)   XCENC  =        24.80140364
  PAW double counting   =       476.93469820     -477.72438863
  entropy T*S    EENTRO =        -0.00000000
  eigenvalues    EBANDS =       -89.99672824
  atomic energy  EATOM  =       197.04175453
  Solvation  Ediel_sol  =         0.00000000
  ---------------------------------------------------
  free energy    TOTEN  =       -23.99999575 eV

  energy without entropy =      -23.99999575  energy(sigma->0) =      -23.99999575


--------------------------------------------------------------------------------------------------------




--------------------------------------- Iteration      1(  12)  ---------------------------------------


    POTLOK:  cpu time    0.1253: real time    0.1312
    SETDIJ:  cpu time    0.0017: real time    0.0017
    EDDIAG:  cpu time    0.0378: real time    0.0391
  RMM-DIIS:  cpu time    0.1554: real time    0.1609
    ORTHCH:  cpu time    0.0015: real time    0.0016
       DOS:  cpu time    0.0002: real time    0.0002
    CHARGE:  cpu time    0.0179: real time    0.0185
    MIXING:  cpu time    0.0051: real time    0.0053
    --------------------------------------------
      LOOP:  cpu time    0.3449: real time    0.3584

 eigenvalue-minimisations  :    64
 total energy-change (2. order) :-0.9782100E-02  (-0.3938160E-03)
 number of electron       8.0000001 magnetization 
 augmentation part        0.1868837 magnetization 

 Broyden mixing:
  rms(total) = 0.12712E-01    rms(broyden)= 0.12710E-01
  rms(prec ) = 0.16558E-01
  weight for this iteration     100.00

 eigenvalues of (default mixing * dielectric matrix)
  average eigenvalue GAMMA=   2.0176
  4.8051  2.9337  2.4340  1.2501  0.9968  0.9968  0.7069

 Free energy of the ion-electron system (eV)
  ---------------------------------------------------
  alpha Z        PSCENC =         0.24456006
  Ewald energy   TEWEN  =       129.35804907
  -Hartree energ DENC   =      -284.85234497
  -exchange      EXHF   =         0.00000000
  -V(xc)+E(xc)   XCENC  =        24.79354850
  PAW double counting   =       474.16627163     -474.95444460
  entropy T*S    EENTRO =        -0.00000000
  eigenvalues    EBANDS =       -89.80717208
  atomic energy  EATOM  =       197.04175453
  Solvation  Ediel_sol  =         0.00000000
  ---------------------------------------------------
  free energy    TOTEN  =       -24.00977785 eV

  energy without entropy =      -24.00977785  energy(sigma->0) =      -24.00977785


--------------------------------------------------------------------------------------------------------




--------------------------------------- Iteration      1(  13)  ---------------------------------------


    POTLOK:  cpu time    0.1244: real time    0.1308
    SETDIJ:  cpu time    0.0019: real time    0.0020
    EDDIAG:  cpu time    0.0365: real time    0.0382
  RMM-DIIS:  cpu time    0.1540: real time    0.1594
    ORTHCH:  cpu time    0.0016: real time    0.0016
       DOS:  cpu time    0.0002: real time    0.0002
    CHARGE:  cpu time    0.0182: real time    0.0184
    MIXING:  cpu time    0.0052: real time    0.0052
    --------------------------------------------
      LOOP:  cpu time    0.3419: real time    0.3557

 eigenvalue-minimisations  :    64
 total energy-change (2. order) :-0.4182849E-03  (-0.8532053E-04)
 number of electron       8.0000001 magnetization 
 augmentation part        0.1866619 magnetization 

 Broyden mixing:
  rms(total) = 0.56395E-02    rms(broyden)= 0.56393E-02
  rms(prec ) = 0.75104E-02
  weight for this iteration     100.00

 eigenvalues of (default mixing * dielectric matrix)
  average eigenvalue GAMMA=   2.4113
  6.0976  4.0248  2.5177  2.3372  1.2199  1.2199  0.9970  0.8761

 Free energy of the ion-electron system (eV)
  ---------------------------------------------------
  alpha Z        PSCENC =         0.24456006
  Ewald energy   TEWEN  =       129.35804907
  -Hartree energ DENC   =      -285.03379281
  -exchange      EXHF   =         0.00000000
  -V(xc)+E(xc)   XCENC  =        24.79887433
  PAW double counting   =       473.97658683     -474.76708325
  entropy T*S    EENTRO =        -0.00000000
  eigenvalues    EBANDS =       -89.62914491
  atomic energy  EATOM  =       197.04175453
  Solvation  Ediel_sol  =         0.00000000
  ---------------------------------------------------
  free energy    TOTEN  =       -24.01019614 eV

  energy without entropy =      -24.01019614  energy(sigma->0) =      -24.01019614


--------------------------------------------------------------------------------------------------------




--------------------------------------- Iteration      1(  14)  ---------------------------------------


    POTLOK:  cpu time    0.1289: real time    0.1298
    SETDIJ:  cpu time    0.0018: real time    0.0018
    EDDIAG:  cpu time    0.0387: real time    0.0396
  RMM-DIIS:  cpu time    0.1607: real time    0.1626
    ORTHCH:  cpu time    0.0016: real time    0.0016
       DOS:  cpu time    0.0002: real time    0.0002
    CHARGE:  cpu time    0.0182: real time    0.0190
    MIXING:  cpu time    0.0055: real time    0.0056
    --------------------------------------------
      LOOP:  cpu time    0.3556: real time    0.3600

 eigenvalue-minimisations  :    64
 total energy-change (2. order) :-0.2848257E-02  (-0.1758267E-03)
 number of electron       8.0000001 magnetization 
 augmentation part        0.1864761 magnetization 

 Broyden mixing:
  rms(total) = 0.39640E-02    rms(broyden)= 0.39619E-02
  rms(prec ) = 0.51567E-02
  weight for this iteration     100.00

 eigenvalues of (default mixing * dielectric matrix)
  average eigenvalue GAMMA=   2.3377
  6.4703  4.1067  2.4467  2.4467  1.2382  1.2382  1.1878  0.9941  0.9102

 Free energy of the ion-electron system (eV)
  ---------------------------------------------------
  alpha Z        PSCENC =         0.24456006
  Ewald energy   TEWEN  =       129.35804907
  -Hartree energ DENC   =      -285.07410680
  -exchange      EXHF   =         0.00000000
  -V(xc)+E(xc)   XCENC  =        24.79043789
  PAW double counting   =       473.10533914     -473.89774792
  entropy T*S    EENTRO =        -0.00000000
  eigenvalues    EBANDS =       -89.58133036
  atomic energy  EATOM  =       197.04175453
  Solvation  Ediel_sol  =         0.00000000
  ---------------------------------------------------
  free energy    TOTEN  =       -24.01304440 eV

  energy without entropy =      -24.01304440  energy(sigma->0) =      -24.01304440


--------------------------------------------------------------------------------------------------------




--------------------------------------- Iteration      1(  15)  ---------------------------------------


    POTLOK:  cpu time    0.1274: real time    0.1281
    SETDIJ:  cpu time    0.0020: real time    0.0020
    EDDIAG:  cpu time    0.0386: real time    0.0388
  RMM-DIIS:  cpu time    0.1598: real time    0.1626
    ORTHCH:  cpu time    0.0014: real time    0.0021
       DOS:  cpu time    0.0002: real time    0.0002
    CHARGE:  cpu time    0.0179: real time    0.0181
    MIXING:  cpu time    0.0056: real time    0.0057
    --------------------------------------------
      LOOP:  cpu time    0.3529: real time    0.3576

 eigenvalue-minimisations  :    64
 total energy-change (2. order) :-0.2246578E-03  (-0.1074727E-04)
 number of electron       8.0000001 magnetization 
 augmentation part        0.1864801 magnetization 

 Broyden mixing:
  rms(total) = 0.13731E-02    rms(broyden)= 0.13730E-02
  rms(prec ) = 0.17925E-02
  weight for this iteration     100.00

 eigenvalues of (default mixing * dielectric matrix)
  average eigenvalue GAMMA=   2.5424
  7.5142  4.8821  2.9635  2.5473  2.0353  1.2906  1.2906  1.0068  1.0011  0.8927

 Free energy of the ion-electron system (eV)
  ---------------------------------------------------
  alpha Z        PSCENC =         0.24456006
  Ewald energy   TEWEN  =       129.35804907
  -Hartree energ DENC   =      -285.01240964
  -exchange      EXHF   =         0.00000000
  -V(xc)+E(xc)   XCENC  =        24.78806155
  PAW double counting   =       473.25602658     -474.04738044
  entropy T*S    EENTRO =        -0.00000000
  eigenvalues    EBANDS =       -89.64193077
  atomic energy  EATOM  =       197.04175453
  Solvation  Ediel_sol  =         0.00000000
  ---------------------------------------------------
  free energy    TOTEN  =       -24.01326905 eV

  energy without entropy =      -24.01326905  energy(sigma->0) =      -24.01326905


--------------------------------------------------------------------------------------------------------




--------------------------------------- Iteration      1(  16)  ---------------------------------------


    POTLOK:  cpu time    0.1252: real time    0.1292
    SETDIJ:  cpu time    0.0017: real time    0.0017
    EDDIAG:  cpu time    0.0383: real time    0.0389
  RMM-DIIS:  cpu time    0.1566: real time    0.1598
    ORTHCH:  cpu time    0.0014: real time    0.0015
       DOS:  cpu time    0.0002: real time    0.0002
    CHARGE:  cpu time    0.0185: real time    0.0187
    MIXING:  cpu time    0.0057: real time    0.0058
    --------------------------------------------
      LOOP:  cpu time    0.3476: real time    0.3559

 eigenvalue-minimisations  :    64
 total energy-change (2. order) :-0.2052539E-03  (-0.1150589E-04)
 number of electron       8.0000001 magnetization 
 augmentation part        0.1865395 magnetization 

 Broyden mixing:
  rms(total) = 0.10537E-02    rms(broyden)= 0.10532E-02
  rms(prec ) = 0.14120E-02
  weight for this iteration     100.00

 eigenvalues of (default mixing * dielectric matrix)
  average eigenvalue GAMMA=   2.4572
  7.6145  4.7521  3.3858  2.3875  2.2398  1.3068  1.3068  1.0829  1.0829  0.9351
  0.9351

 Free energy of the ion-electron system (eV)
  ---------------------------------------------------
  alpha Z        PSCENC =         0.24456006
  Ewald energy   TEWEN  =       129.35804907
  -Hartree energ DENC   =      -284.99041169
  -exchange      EXHF   =         0.00000000
  -V(xc)+E(xc)   XCENC  =        24.78781190
  PAW double counting   =       473.32261791     -474.11344756
  entropy T*S    EENTRO =        -0.00000000
  eigenvalues    EBANDS =       -89.66440852
  atomic energy  EATOM  =       197.04175453
  Solvation  Ediel_sol  =         0.00000000
  ---------------------------------------------------
  free energy    TOTEN  =       -24.01347431 eV

  energy without entropy =      -24.01347431  energy(sigma->0) =      -24.01347431


--------------------------------------------------------------------------------------------------------




--------------------------------------- Iteration      1(  17)  ---------------------------------------


    POTLOK:  cpu time    0.1281: real time    0.1308
    SETDIJ:  cpu time    0.0017: real time    0.0017
    EDDIAG:  cpu time    0.0377: real time    0.0384
  RMM-DIIS:  cpu time    0.1567: real time    0.1606
    ORTHCH:  cpu time    0.0014: real time    0.0014
       DOS:  cpu time    0.0002: real time    0.0002
    CHARGE:  cpu time    0.0181: real time    0.0184
    MIXING:  cpu time    0.0059: real time    0.0060
    --------------------------------------------
      LOOP:  cpu time    0.3498: real time    0.3575

 eigenvalue-minimisations  :    64
 total energy-change (2. order) :-0.2637543E-04  (-0.3710740E-05)
 number of electron       8.0000001 magnetization 
 augmentation part        0.1864985 magnetization 

 Broyden mixing:
  rms(total) = 0.34592E-03    rms(broyden)= 0.34583E-03
  rms(prec ) = 0.51314E-03
  weight for this iteration     100.00

 eigenvalues of (default mixing * dielectric matrix)
  average eigenvalue GAMMA=   2.5698
  8.3518  5.1996  3.9150  2.5236  2.5236  1.8774  1.3095  1.3095  1.0262  0.9622
  0.9540  0.8850

 Free energy of the ion-electron system (eV)
  ---------------------------------------------------
  alpha Z        PSCENC =         0.24456006
  Ewald energy   TEWEN  =       129.35804907
  -Hartree energ DENC   =      -285.04038840
  -exchange      EXHF   =         0.00000000
  -V(xc)+E(xc)   XCENC  =        24.79020759
  PAW double counting   =       473.32879708     -474.12006810
  entropy T*S    EENTRO =        -0.00000000
  eigenvalues    EBANDS =       -89.61641251
  atomic energy  EATOM  =       197.04175453
  Solvation  Ediel_sol  =         0.00000000
  ---------------------------------------------------
  free energy    TOTEN  =       -24.01350068 eV

  energy without entropy =      -24.01350068  energy(sigma->0) =      -24.01350068


--------------------------------------------------------------------------------------------------------




--------------------------------------- Iteration      1(  18)  ---------------------------------------


    POTLOK:  cpu time    0.1311: real time    0.1338
    SETDIJ:  cpu time    0.0017: real time    0.0017
    EDDIAG:  cpu time    0.0389: real time    0.0395
  RMM-DIIS:  cpu time    0.1289: real time    0.1312
    ORTHCH:  cpu time    0.0015: real time    0.0015
       DOS:  cpu time    0.0002: real time    0.0002
    CHARGE:  cpu time    0.0176: real time    0.0186
    MIXING:  cpu time    0.0063: real time    0.0064
    --------------------------------------------
      LOOP:  cpu time    0.3263: real time    0.3329

 eigenvalue-minimisations  :    48
 total energy-change (2. order) :-0.1383389E-04  (-0.1802058E-06)
 number of electron       8.0000001 magnetization 
 augmentation part        0.1865017 magnetization 

 Broyden mixing:
  rms(total) = 0.79649E-04    rms(broyden)= 0.79639E-04
  rms(prec ) = 0.12477E-03
  weight for this iteration     100.00

 eigenvalues of (default mixing * dielectric matrix)
  average eigenvalue GAMMA=   2.5884
  8.4109  5.4252  3.5704  3.5704  2.4473  2.2010  1.4542  1.3043  1.3043  0.8943
  1.0862  0.9907  0.9907

 Free energy of the ion-electron system (eV)
  ---------------------------------------------------
  alpha Z        PSCENC =         0.24456006
  Ewald energy   TEWEN  =       129.35804907
  -Hartree energ DENC   =      -285.02460703
  -exchange      EXHF   =         0.00000000
  -V(xc)+E(xc)   XCENC  =        24.78931434
  PAW double counting   =       473.25384149     -474.04498943
  entropy T*S    EENTRO =        -0.00000000
  eigenvalues    EBANDS =       -89.63143756
  atomic energy  EATOM  =       197.04175453
  Solvation  Ediel_sol  =         0.00000000
  ---------------------------------------------------
  free energy    TOTEN  =       -24.01351452 eV

  energy without entropy =      -24.01351452  energy(sigma->0) =      -24.01351452


--------------------------------------------------------------------------------------------------------




--------------------------------------- Iteration      1(  19)  ---------------------------------------


    POTLOK:  cpu time    0.1321: real time    0.1352
    SETDIJ:  cpu time    0.0017: real time    0.0017
    EDDIAG:  cpu time    0.0374: real time    0.0381
  RMM-DIIS:  cpu time    0.1253: real time    0.1285
    ORTHCH:  cpu time    0.0014: real time    0.0014
       DOS:  cpu time    0.0002: real time    0.0002
    CHARGE:  cpu time    0.0182: real time    0.0184
    MIXING:  cpu time    0.0062: real time    0.0063
    --------------------------------------------
      LOOP:  cpu time    0.3224: real time    0.3297

 eigenvalue-minimisations  :    48
 total energy-change (2. order) :-0.3290593E-05  (-0.6487651E-07)
 number of electron       8.0000001 magnetization 
 augmentation part        0.1865062 magnetization 

 Broyden mixing:
  rms(total) = 0.23120E-04    rms(broyden)= 0.23103E-04
  rms(prec ) = 0.40557E-04
  weight for this iteration     100.00

 eigenvalues of (default mixing * dielectric matrix)
  average eigenvalue GAMMA=   2.5247
  8.4460  5.5208  3.9516  3.3115  2.4389  2.4389  1.9473  1.2995  1.2995  1.0298
  0.9721  0.9721  0.8591  0.8591

 Free energy of the ion-electron system (eV)
  ---------------------------------------------------
  alpha Z        PSCENC =         0.24456006
  Ewald energy   TEWEN  =       129.35804907
  -Hartree energ DENC   =      -285.02008535
  -exchange      EXHF   =         0.00000000
  -V(xc)+E(xc)   XCENC  =        24.78897356
  PAW double counting   =       473.23467144     -474.02580581
  entropy T*S    EENTRO =        -0.00000000
  eigenvalues    EBANDS =       -89.63563531
  atomic energy  EATOM  =       197.04175453
  Solvation  Ediel_sol  =         0.00000000
  ---------------------------------------------------
  free energy    TOTEN  =       -24.01351781 eV

  energy without entropy =      -24.01351781  energy(sigma->0) =      -24.01351781


--------------------------------------------------------------------------------------------------------




--------------------------------------- Iteration      1(  20)  ---------------------------------------


    POTLOK:  cpu time    0.1330: real time    0.1367
    SETDIJ:  cpu time    0.0017: real time    0.0017
    EDDIAG:  cpu time    0.0373: real time    0.0380
  RMM-DIIS:  cpu time    0.1210: real time    0.1240
    ORTHCH:  cpu time    0.0015: real time    0.0015
       DOS:  cpu time    0.0002: real time    0.0002
    CHARGE:  cpu time    0.0179: real time    0.0183
    MIXING:  cpu time    0.0064: real time    0.0064
    --------------------------------------------
      LOOP:  cpu time    0.3190: real time    0.3268

 eigenvalue-minimisations  :    44
 total energy-change (2. order) :-0.1176804E-05  (-0.1159962E-07)
 number of electron       8.0000001 magnetization 
 augmentation part        0.1865075 magnetization 

 Broyden mixing:
  rms(total) = 0.18430E-04    rms(broyden)= 0.18422E-04
  rms(prec ) = 0.28285E-04
  weight for this iteration     100.00

 eigenvalues of (default mixing * dielectric matrix)
  average eigenvalue GAMMA=   2.4936
  8.4858  5.5203  4.2600  3.4597  2.4747  2.4747  2.0733  1.2854  1.2854  1.1173
  1.1173  0.8886  1.0014  0.9800  0.9800

 Free energy of the ion-electron system (eV)
  ---------------------------------------------------
  alpha Z        PSCENC =         0.24456006
  Ewald energy   TEWEN  =       129.35804907
  -Hartree energ DENC   =      -285.02095364
  -exchange      EXHF   =         0.00000000
  -V(xc)+E(xc)   XCENC  =        24.78901811
  PAW double counting   =       473.24146690     -474.03260099
  entropy T*S    EENTRO =        -0.00000000
  eigenvalues    EBANDS =       -89.63481304
  atomic energy  EATOM  =       197.04175453
  Solvation  Ediel_sol  =         0.00000000
  ---------------------------------------------------
  free energy    TOTEN  =       -24.01351899 eV

  energy without entropy =      -24.01351899  energy(sigma->0) =      -24.01351899


--------------------------------------------------------------------------------------------------------




--------------------------------------- Iteration      1(  21)  ---------------------------------------


    POTLOK:  cpu time    0.1340: real time    0.1361
    SETDIJ:  cpu time    0.0019: real time    0.0019
    EDDIAG:  cpu time    0.0381: real time    0.0388
  RMM-DIIS:  cpu time    0.1184: real time    0.1205
    ORTHCH:  cpu time    0.0015: real time    0.0015
       DOS:  cpu time    0.0002: real time    0.0002
    --------------------------------------------
      LOOP:  cpu time    0.2941: real time    0.2989

 eigenvalue-minimisations  :    41
 total energy-change (2. order) :-0.3140590E-06  (-0.3727287E-08)
 number of electron       8.0000001 magnetization 
 augmentation part        0.1865075 magnetization 

 Free energy of the ion-electron system (eV)
  ---------------------------------------------------
  alpha Z        PSCENC =         0.24456006
  Ewald energy   TEWEN  =       129.35804907
  -Hartree energ DENC   =      -285.02084912
  -exchange      EXHF   =         0.00000000
  -V(xc)+E(xc)   XCENC  =        24.78901856
  PAW double counting   =       473.24513398     -474.03626606
  entropy T*S    EENTRO =        -0.00000000
  eigenvalues    EBANDS =       -89.63492032
  atomic energy  EATOM  =       197.04175453
  Solvation  Ediel_sol  =         0.00000000
  ---------------------------------------------------
  free energy    TOTEN  =       -24.01351930 eV

  energy without entropy =      -24.01351930  energy(sigma->0) =      -24.01351930


--------------------------------------------------------------------------------------------------------




 average (electrostatic) potential at core
  the test charge radii are     0.5201  0.6991
  (the norm of the test charge is              1.0000)
       1 -41.5712       2 -41.3729       3 -41.5487       4 -41.5911       5 -57.9345
 
 
 
 E-fermi :  -8.2405     XC(G=0):  -0.7033     alpha+bet : -0.2127


 k-point     1 :       0.2500    0.2500    0.2500
  band No.  band energies     occupation 
      1     -16.9164      2.00000
      2      -9.4140      2.00000
      3      -9.3156      2.00000
      4      -9.1715      2.00000
      5      -0.3022      0.00000
      6       0.5627      0.00000
      7       0.6568      0.00000
      8       0.6951      0.00000

 k-point     2 :      -0.2500    0.2500    0.2500
  band No.  band energies     occupation 
      1     -16.9164      2.00000
      2      -9.4139      2.00000
      3      -9.3156      2.00000
      4      -9.1715      2.00000
      5      -0.3095      0.00000
      6       0.5735      0.00000
      7       0.6800      0.00000
      8       0.7082      0.00000

 k-point     3 :       0.2500   -0.2500    0.2500
  band No.  band energies     occupation 
      1     -16.9164      2.00000
      2      -9.4140      2.00000
      3      -9.3156      2.00000
      4      -9.1715      2.00000
      5      -0.3110      0.00000
      6       0.5726      0.00000
      7       0.6833      0.00000
      8       0.7179      0.00000

 k-point     4 :      -0.2500   -0.2500    0.2500
  band No.  band energies     occupation 
      1     -16.9164      2.00000
      2      -9.4141      2.00000
      3      -9.3157      2.00000
      4      -9.1714      2.00000
      5      -0.3096      0.00000
      6       0.5717      0.00000
      7       0.6703      0.00000
      8       0.7237      0.00000


--------------------------------------------------------------------------------------------------------


 soft charge-density along one line, spin component           1
         0         1         2         3         4         5         6         7         8         9
 total charge-density along one line
 
 pseudopotential strength for first ion, spin component:           1
 -2.341  -4.035  -0.001  -0.001   0.001
 -4.035  -6.867  -0.003  -0.004   0.002
 -0.001  -0.003  -0.337   0.002  -0.001
 -0.001  -0.004   0.002  -0.335  -0.001
  0.001   0.002  -0.001  -0.001  -0.338
 total augmentation occupancy for first ion, spin component:           1
  3.590  -0.645   0.239   0.341  -0.156
 -0.645   0.131  -0.044  -0.063   0.028
  0.239  -0.044   0.023   0.019  -0.009
  0.341  -0.063   0.019   0.037  -0.012
 -0.156   0.028  -0.009  -0.012   0.015


------------------------ aborting loop because EDIFF is reached ----------------------------------------


    CHARGE:  cpu time    0.0180: real time    0.0183
    FORLOC:  cpu time    0.0130: real time    0.0132
    FORNL :  cpu time    0.0208: real time    0.0211
    STRESS:  cpu time    0.1550: real time    0.1579
    FORCOR:  cpu time    0.1350: real time    0.1370
    FORHAR:  cpu time    0.0416: real time    0.0421
    MIXING:  cpu time    0.0061: real time    0.0063
    OFIELD:  cpu time    0.0000: real time    0.0000

  FORCE on cell =-STRESS in cart. coord.  units (eV):
  Direction    XX          YY          ZZ          XY          YZ          ZX
  --------------------------------------------------------------------------------------
  Alpha Z     0.24456     0.24456     0.24456
  Ewald      40.92040    44.54266    43.89496    -1.77819    -1.98158    -1.40932
  Hartree    93.37595    95.25076    96.39629    -0.78223    -0.77778    -0.52624
  E(xc)     -27.25392   -27.25758   -27.27367    -0.00841    -0.00848    -0.00568
  Local    -193.34579  -198.12460  -199.03044     2.33623     2.45820     1.70169
  n-local   -15.92649   -16.03449   -16.05517    -0.00799    -0.00862     0.00901
  augment     0.11777     0.11033     0.11247     0.00141     0.00207     0.00178
  Kinetic   101.00578   101.27355   102.07584     0.40880     0.43579     0.25375
  Fock        0.00000     0.00000     0.00000     0.00000     0.00000     0.00000
  -------------------------------------------------------------------------------------
  Total      -0.86175     0.00519     0.36484     0.16961     0.11960     0.02499
  in kB      -1.39384     0.00839     0.59011     0.27433     0.19345     0.04042
  external pressure =       -0.27 kB  Pullay stress =        0.00 kB

  kinetic pressure (ideal gas correction) =      0.00 kB
  total pressure  =     -0.27 kB
  Total+kin.    -1.394       0.008       0.590       0.274       0.193       0.040

 VOLUME and BASIS-vectors are now :
 -----------------------------------------------------------------------------
  energy-cutoff  :      400.00
  volume of cell :      990.56
      direct lattice vectors                 reciprocal lattice vectors
    10.137586422  0.000000000  0.000000000     0.098642809  0.002243321  0.001436922
    -0.226653359  9.966351330  0.000000000     0.000000000  0.100337623  0.002282124
    -0.137744751 -0.222989514  9.804126698     0.000000000  0.000000000  0.101997866

  length of vectors
    10.137586422  9.968928256  9.807629594     0.098678777  0.100363572  0.101997866


 FORCES acting on ions
    electron-ion (+dipol)            ewald-force                    non-local-force                 convergence-correction
 -----------------------------------------------------------------------------------------------
   -.186E+02 0.287E+02 0.411E+02   0.206E+02 -.320E+02 -.458E+02   -.201E+01 0.305E+01 0.434E+01   0.719E-04 -.934E-04 -.129E-03
   0.517E+02 -.600E+01 0.336E+01   -.564E+02 0.648E+01 -.370E+01   0.521E+01 -.622E+00 0.335E+00   -.190E-03 0.190E-04 -.143E-04
   -.230E+02 -.480E+02 0.128E+01   0.256E+02 0.534E+02 -.133E+01   -.243E+01 -.506E+01 0.171E+00   0.922E-04 0.160E-03 -.701E-05
   -.124E+02 0.260E+02 -.450E+02   0.138E+02 -.289E+02 0.502E+02   -.133E+01 0.280E+01 -.477E+01   0.539E-04 -.903E-04 0.145E-03
   0.299E+01 -.870E+00 -.600E+00   -.349E+01 0.103E+01 0.613E+00   -.179E+00 0.286E-01 -.161E+00   0.653E-04 -.122E-04 -.265E-04
 -----------------------------------------------------------------------------------------------
   0.734E+00 -.190E+00 0.854E-01   -.178E-14 0.355E-14 0.000E+00   -.735E+00 0.190E+00 -.854E-01   0.933E-04 -.171E-04 -.318E-04
 
 
 POSITION                                       TOTAL-FORCE (eV/Angst)
 -----------------------------------------------------------------------------------
      5.31436      3.97391      3.53434        -0.012630     -0.221219     -0.415849
      3.83268      4.68415      4.29501         0.504682     -0.140876     -0.009393
      5.40721      5.53727      4.34010         0.133567      0.250719      0.121075
      5.18915      4.02834      5.27996         0.059864     -0.073104      0.452220
      4.93612      4.55629      4.36769        -0.685856      0.184073     -0.148127
 -----------------------------------------------------------------------------------
    total drift:                               -0.000373     -0.000408     -0.000074


--------------------------------------------------------------------------------------------------------



  FREE ENERGIE OF THE ION-ELECTRON SYSTEM (eV)
  ---------------------------------------------------
  free  energy   TOTEN  =       -24.01351930 eV

  energy  without entropy=      -24.01351930  energy(sigma->0) =      -24.01351930
 


--------------------------------------------------------------------------------------------------------


    POTLOK:  cpu time    0.1348: real time    0.1370


--------------------------------------------------------------------------------------------------------


 stress matrix after NEB project (eV)
     -0.86175      0.16961      0.02499
      0.16961      0.00519      0.11960
      0.02499      0.11960      0.36484
  FORCES: max atom, RMS     0.725412    0.516077
  FORCE total and by dimension    1.153984    0.685856
  Stress total and by dimension    0.981401    0.861754
           RANDOM_SEED =         581385549                0                0
           RANDOM_SEED =         581385549               30                0
   IONSTEP:  cpu time    0.0034: real time    0.0070

  ENERGY OF THE ELECTRON-ION-THERMOSTAT SYSTEM (eV)
  ---------------------------------------------------
% ion-electron   TOTEN  =       -24.013519  see above
  kinetic energy EKIN   =         0.000259
  kin. lattice  EKIN_LAT=         0.000000  (temperature    0.50 K)
  nose potential ES     =         0.000000
  nose kinetic   EPS    =         0.000000
  ---------------------------------------------------
  total energy   ETOTAL =       -24.013260 eV

  maximum distance moved by ions :      0.12E-03

    WAVPRE:  cpu time    0.0405: real time    0.0412
    FEWALD:  cpu time    0.0004: real time    0.0004
    ORTHCH:  cpu time    0.0085: real time    0.0086
     LOOP+:  cpu time    7.2923: real time    7.5579


--------------------------------------- Iteration      2(   1)  ---------------------------------------


    POTLOK:  cpu time    0.1348: real time    0.1376
    SETDIJ:  cpu time    0.0018: real time    0.0018
     EDDAV:  cpu time    0.1760: real time    0.1790
       DOS:  cpu time    0.0003: real time    0.0003
    CHARGE:  cpu time    0.0173: real time    0.0177
    MIXING:  cpu time    0.0060: real time    0.0061
    --------------------------------------------
      LOOP:  cpu time    0.3362: real time    0.3425

 eigenvalue-minimisations  :    80
 total energy-change (2. order) :-0.1977953E-02  (-0.2173549E-03)
 number of electron       8.0000001 magnetization 
 augmentation part        0.1863610 magnetization 

 Broyden mixing:
  rms(total) = 0.20141E-02    rms(broyden)= 0.20123E-02
  rms(prec ) = 0.24317E-02
  weight for this iteration     100.00

 Free energy of the ion-electron system (eV)
  ---------------------------------------------------
  alpha Z        PSCENC =         0.24456006
  Ewald energy   TEWEN  =       129.26390976
  -Hartree energ DENC   =      -284.97029320
  -exchange      EXHF   =         0.00000000
  -V(xc)+E(xc)   XCENC  =        24.78644995
  PAW double counting   =       473.25118813     -474.04233128
  entropy T*S    EENTRO =        -0.00000000
  eigenvalues    EBANDS =       -89.59073488
  atomic energy  EATOM  =       197.04175453
  Solvation  Ediel_sol  =         0.00000000
  ---------------------------------------------------
  free energy    TOTEN  =       -24.01549694 eV

  energy without entropy =      -24.01549694  energy(sigma->0) =      -24.01549694


--------------------------------------------------------------------------------------------------------




--------------------------------------- Iteration      2(   2)  ---------------------------------------


    POTLOK:  cpu time    0.1369: real time    0.1387
    SETDIJ:  cpu time    0.0018: real time    0.0018
    EDDIAG:  cpu time    0.0378: real time    0.0382
  RMM-DIIS:  cpu time    0.1568: real time    0.1577
    ORTHCH:  cpu time    0.0015: real time    0.0015
       DOS:  cpu time    0.0002: real time    0.0002
    CHARGE:  cpu time    0.0182: real time    0.0184
    MIXING:  cpu time    0.0044: real time    0.0045
    --------------------------------------------
      LOOP:  cpu time    0.3577: real time    0.3610

 eigenvalue-minimisations  :    64
 total energy-change (2. order) : 0.2672272E-05  (-0.6520500E-05)
 number of electron       8.0000001 magnetization 
 augmentation part        0.1863736 magnetization 

 Broyden mixing:
  rms(total) = 0.12661E-02    rms(broyden)= 0.12655E-02
  rms(prec ) = 0.14850E-02
  weight for this iteration     100.00

 eigenvalues of (default mixing * dielectric matrix)
  average eigenvalue GAMMA=   1.8516
  1.8516

 Free energy of the ion-electron system (eV)
  ---------------------------------------------------
  alpha Z        PSCENC =         0.24456006
  Ewald energy   TEWEN  =       129.26390976
  -Hartree energ DENC   =      -284.95122233
  -exchange      EXHF   =         0.00000000
  -V(xc)+E(xc)   XCENC  =        24.78539112
  PAW double counting   =       473.05178532     -473.84270518
  entropy T*S    EENTRO =        -0.00000000
  eigenvalues    EBANDS =       -89.60896755
  atomic energy  EATOM  =       197.04175453
  Solvation  Ediel_sol  =         0.00000000
  ---------------------------------------------------
  free energy    TOTEN  =       -24.01549427 eV

  energy without entropy =      -24.01549427  energy(sigma->0) =      -24.01549427


--------------------------------------------------------------------------------------------------------




--------------------------------------- Iteration      2(   3)  ---------------------------------------


    POTLOK:  cpu time    0.1354: real time    0.1361
    SETDIJ:  cpu time    0.0017: real time    0.0017
    EDDIAG:  cpu time    0.0377: real time    0.0379
  RMM-DIIS:  cpu time    0.1580: real time    0.1594
    ORTHCH:  cpu time    0.0017: real time    0.0017
       DOS:  cpu time    0.0002: real time    0.0002
    CHARGE:  cpu time    0.0184: real time    0.0185
    MIXING:  cpu time    0.0044: real time    0.0044
    --------------------------------------------
      LOOP:  cpu time    0.3576: real time    0.3599

 eigenvalue-minimisations  :    64
 total energy-change (2. order) : 0.8484309E-06  (-0.1408677E-05)
 number of electron       8.0000001 magnetization 
 augmentation part        0.1863960 magnetization 

 Broyden mixing:
  rms(total) = 0.38006E-03    rms(broyden)= 0.37966E-03
  rms(prec ) = 0.45036E-03
  weight for this iteration     100.00

 eigenvalues of (default mixing * dielectric matrix)
  average eigenvalue GAMMA=   1.5828
  1.2691  1.8965

 Free energy of the ion-electron system (eV)
  ---------------------------------------------------
  alpha Z        PSCENC =         0.24456006
  Ewald energy   TEWEN  =       129.26390976
  -Hartree energ DENC   =      -284.93711824
  -exchange      EXHF   =         0.00000000
  -V(xc)+E(xc)   XCENC  =        24.78460173
  PAW double counting   =       472.77645621     -473.56718379
  entropy T*S    EENTRO =        -0.00000000
  eigenvalues    EBANDS =       -89.62247367
  atomic energy  EATOM  =       197.04175453
  Solvation  Ediel_sol  =         0.00000000
  ---------------------------------------------------
  free energy    TOTEN  =       -24.01549342 eV

  energy without entropy =      -24.01549342  energy(sigma->0) =      -24.01549342


--------------------------------------------------------------------------------------------------------




--------------------------------------- Iteration      2(   4)  ---------------------------------------


    POTLOK:  cpu time    0.1344: real time    0.1358
    SETDIJ:  cpu time    0.0017: real time    0.0017
    EDDIAG:  cpu time    0.0379: real time    0.0381
  RMM-DIIS:  cpu time    0.1258: real time    0.1267
    ORTHCH:  cpu time    0.0015: real time    0.0015
       DOS:  cpu time    0.0002: real time    0.0002
    --------------------------------------------
      LOOP:  cpu time    0.3014: real time    0.3040

 eigenvalue-minimisations  :    48
 total energy-change (2. order) : 0.1055265E-06  (-0.4510820E-07)
 number of electron       8.0000001 magnetization 
 augmentation part        0.1863960 magnetization 

 Free energy of the ion-electron system (eV)
  ---------------------------------------------------
  alpha Z        PSCENC =         0.24456006
  Ewald energy   TEWEN  =       129.26390976
  -Hartree energ DENC   =      -284.94152635
  -exchange      EXHF   =         0.00000000
  -V(xc)+E(xc)   XCENC  =        24.78479504
  PAW double counting   =       472.72684796     -473.51763094
  entropy T*S    EENTRO =        -0.00000000
  eigenvalues    EBANDS =       -89.61820337
  atomic energy  EATOM  =       197.04175453
  Solvation  Ediel_sol  =         0.00000000
  ---------------------------------------------------
  free energy    TOTEN  =       -24.01549331 eV

  energy without entropy =      -24.01549331  energy(sigma->0) =      -24.01549331


--------------------------------------------------------------------------------------------------------




 average (electrostatic) potential at core
  the test charge radii are     0.5201  0.6991
  (the norm of the test charge is              1.0000)
       1 -41.5627       2 -41.3827       3 -41.5434       4 -41.5823       5 -57.9365
 
 
 
 E-fermi :  -8.2359     XC(G=0):  -0.6919     alpha+bet : -0.2127


 k-point     1 :       0.2500    0.2500    0.2500
  band No.  band energies     occupation 
      1     -16.9129      2.00000
      2      -9.4086      2.00000
      3      -9.3147      2.00000
      4      -9.1728      2.00000
      5      -0.2985      0.00000
      6       0.5737      0.00000
      7       0.6650      0.00000
      8       0.7028      0.00000

 k-point     2 :      -0.2500    0.2500    0.2500
  band No.  band energies     occupation 
      1     -16.9128      2.00000
      2      -9.4085      2.00000
      3      -9.3147      2.00000
      4      -9.1729      2.00000
      5      -0.3057      0.00000
      6       0.5839      0.00000
      7       0.6871      0.00000
      8       0.7167      0.00000

 k-point     3 :       0.2500   -0.2500    0.2500
  band No.  band energies     occupation 
      1     -16.9129      2.00000
      2      -9.4087      2.00000
      3      -9.3147      2.00000
      4      -9.1729      2.00000
      5      -0.3073      0.00000
      6       0.5849      0.00000
      7       0.6887      0.00000
      8       0.7265      0.00000

 k-point     4 :      -0.2500   -0.2500    0.2500
  band No.  band energies     occupation 
      1     -16.9129      2.00000
      2      -9.4087      2.00000
      3      -9.3148      2.00000
      4      -9.1728      2.00000
      5      -0.3059      0.00000
      6       0.5846      0.00000
      7       0.6782      0.00000
      8       0.7293      0.00000


--------------------------------------------------------------------------------------------------------


 soft charge-density along one line, spin component           1
         0         1         2         3         4         5         6         7         8         9
 total charge-density along one line
 
 pseudopotential strength for first ion, spin component:           1
 -2.341  -4.035  -0.001  -0.001   0.001
 -4.035  -6.867  -0.003  -0.004   0.002
 -0.001  -0.003  -0.337   0.002  -0.001
 -0.001  -0.004   0.002  -0.335  -0.001
  0.001   0.002  -0.001  -0.001  -0.338
 total augmentation occupancy for first ion, spin component:           1
  3.587  -0.644   0.238   0.340  -0.156
 -0.644   0.130  -0.044  -0.063   0.028
  0.238  -0.044   0.023   0.019  -0.009
  0.340  -0.063   0.019   0.036  -0.012
 -0.156   0.028  -0.009  -0.012   0.015


------------------------ aborting loop because EDIFF is reached ----------------------------------------


    CHARGE:  cpu time    0.0182: real time    0.0183
    FORLOC:  cpu time    0.0133: real time    0.0133
    FORNL :  cpu time    0.0210: real time    0.0211
    STRESS:  cpu time    0.1552: real time    0.1558
    FORCOR:  cpu time    0.1365: real time    0.1374
    FORHAR:  cpu time    0.0440: real time    0.0442
    MIXING:  cpu time    0.0055: real time    0.0055
    OFIELD:  cpu time    0.0000: real time    0.0000

  FORCE on cell =-STRESS in cart. coord.  units (eV):
  Direction    XX          YY          ZZ          XY          YZ          ZX
  --------------------------------------------------------------------------------------
  Alpha Z     0.24456     0.24456     0.24456
  Ewald      40.95228    44.45785    43.85375    -1.75280    -1.95076    -1.37644
  Hartree    93.32570    95.22615    96.39261    -0.77279    -0.76974    -0.52132
  E(xc)     -27.24975   -27.25300   -27.26869    -0.00822    -0.00832    -0.00558
  Local    -193.29381  -198.04198  -199.01055     2.30444     2.42544     1.67282
  n-local   -15.92244   -16.02220   -16.04143    -0.00757    -0.00843     0.00835
  augment     0.11753     0.11073     0.11290     0.00139     0.00202     0.00170
  Kinetic   100.99941   101.24431   102.02667     0.39967     0.42738     0.24950
  Fock        0.00000     0.00000     0.00000     0.00000     0.00000     0.00000
[...]
      5.41470      5.55008      4.34965        -0.079038     -0.194956      0.054480
      5.19139      4.02819      5.30513        -0.082819      0.206191     -0.249120
      4.93351      4.55695      4.36685         0.745970     -0.201180      0.006906
 -----------------------------------------------------------------------------------
    total drift:                               -0.000030     -0.000183     -0.000068


--------------------------------------------------------------------------------------------------------



  FREE ENERGIE OF THE ION-ELECTRON SYSTEM (eV)
  ---------------------------------------------------
  free  energy   TOTEN  =       -24.02185680 eV

  energy  without entropy=      -24.02185680  energy(sigma->0) =      -24.02185680
 
 d Force =-0.2646769E-02[-0.322E-02,-0.207E-02]  d Energy =-0.2647987E-02 0.122E-05
 d Force = 0.2156140E+00[ 0.215E+00, 0.217E+00]  d Ewald  = 0.2156147E+00-0.698E-06


--------------------------------------------------------------------------------------------------------


    POTLOK:  cpu time    0.1402: real time    0.1409


--------------------------------------------------------------------------------------------------------


 stress matrix after NEB project (eV)
     -0.04178      0.00720      0.08757
      0.00720     -0.78177      0.04675
      0.08757      0.04675     -0.80082
  FORCES: max atom, RMS     0.772652    0.457463
  FORCE total and by dimension    1.022919    0.745970
  Stress total and by dimension    1.128733    0.800823
           RANDOM_SEED =         581385549               30                0
   IONSTEP:  cpu time    0.0002: real time    0.0002

  ENERGY OF THE ELECTRON-ION-THERMOSTAT SYSTEM (eV)
  ---------------------------------------------------
% ion-electron   TOTEN  =       -24.021857  see above
  kinetic energy EKIN   =         0.008496
  kin. lattice  EKIN_LAT=         0.000000  (temperature   16.43 K)
  nose potential ES     =         0.000000
  nose kinetic   EPS    =         0.000000
  ---------------------------------------------------
  total energy   ETOTAL =       -24.013361 eV

  maximum distance moved by ions :      0.35E-03

    WAVPRE:  cpu time    0.0470: real time    0.0474
    FEWALD:  cpu time    0.0004: real time    0.0004
    ORTHCH:  cpu time    0.0086: real time    0.0087
 Prediction of Wavefunctions ALPHA= 2.174 BETA=-1.209
     LOOP+:  cpu time    2.2247: real time    2.2432


--------------------------------------- Iteration     10(   1)  ---------------------------------------


    POTLOK:  cpu time    0.1361: real time    0.1366
    SETDIJ:  cpu time    0.0017: real time    0.0018
     EDDAV:  cpu time    0.1530: real time    0.1540
       DOS:  cpu time    0.0003: real time    0.0003
    CHARGE:  cpu time    0.0179: real time    0.0180
    MIXING:  cpu time    0.0043: real time    0.0043
    --------------------------------------------
      LOOP:  cpu time    0.3134: real time    0.3150

 eigenvalue-minimisations  :    64
 total energy-change (2. order) : 0.2332752E-02  (-0.2419738E-04)
 number of electron       8.0000000 magnetization 
 augmentation part        0.1840741 magnetization 

 Broyden mixing:
  rms(total) = 0.28654E-03    rms(broyden)= 0.28633E-03
  rms(prec ) = 0.38383E-03
  weight for this iteration     100.00

 Free energy of the ion-electron system (eV)
  ---------------------------------------------------
  alpha Z        PSCENC =         0.24456006
  Ewald energy   TEWEN  =       127.33114176
  -Hartree energ DENC   =      -283.25507915
  -exchange      EXHF   =         0.00000000
  -V(xc)+E(xc)   XCENC  =        24.69583460
  PAW double counting   =       461.12507194     -461.90919380
  entropy T*S    EENTRO =        -0.00000000
  eigenvalues    EBANDS =       -89.29361384
  atomic energy  EATOM  =       197.04175453
  Solvation  Ediel_sol  =         0.00000000
  ---------------------------------------------------
  free energy    TOTEN  =       -24.01952390 eV

  energy without entropy =      -24.01952390  energy(sigma->0) =      -24.01952390


--------------------------------------------------------------------------------------------------------




--------------------------------------- Iteration     10(   2)  ---------------------------------------


    POTLOK:  cpu time    0.1340: real time    0.1348
    SETDIJ:  cpu time    0.0017: real time    0.0017
    EDDIAG:  cpu time    0.0380: real time    0.0381
  RMM-DIIS:  cpu time    0.1499: real time    0.1517
    ORTHCH:  cpu time    0.0017: real time    0.0017
       DOS:  cpu time    0.0002: real time    0.0002
    CHARGE:  cpu time    0.0185: real time    0.0186
    MIXING:  cpu time    0.0043: real time    0.0043
    --------------------------------------------
      LOOP:  cpu time    0.3484: real time    0.3511

 eigenvalue-minimisations  :    57
 total energy-change (2. order) :-0.2594646E-06  (-0.3443362E-06)
 number of electron       8.0000000 magnetization 
 augmentation part        0.1840792 magnetization 

 Broyden mixing:
  rms(total) = 0.18523E-03    rms(broyden)= 0.18513E-03
  rms(prec ) = 0.25259E-03
  weight for this iteration     100.00

 eigenvalues of (default mixing * dielectric matrix)
  average eigenvalue GAMMA=   1.3296
  1.3296

 Free energy of the ion-electron system (eV)
  ---------------------------------------------------
  alpha Z        PSCENC =         0.24456006
  Ewald energy   TEWEN  =       127.33114176
  -Hartree energ DENC   =      -283.24979050
  -exchange      EXHF   =         0.00000000
  -V(xc)+E(xc)   XCENC  =        24.69555717
  PAW double counting   =       461.12181585     -461.90586972
  entropy T*S    EENTRO =        -0.00000000
  eigenvalues    EBANDS =       -89.29869331
  atomic energy  EATOM  =       197.04175453
  Solvation  Ediel_sol  =         0.00000000
  ---------------------------------------------------
  free energy    TOTEN  =       -24.01952416 eV

  energy without entropy =      -24.01952416  energy(sigma->0) =      -24.01952416


--------------------------------------------------------------------------------------------------------




--------------------------------------- Iteration     10(   3)  ---------------------------------------


    POTLOK:  cpu time    0.1351: real time    0.1358
    SETDIJ:  cpu time    0.0018: real time    0.0019
    EDDIAG:  cpu time    0.0383: real time    0.0384
  RMM-DIIS:  cpu time    0.1264: real time    0.1271
    ORTHCH:  cpu time    0.0015: real time    0.0015
       DOS:  cpu time    0.0002: real time    0.0002
    CHARGE:  cpu time    0.0188: real time    0.0190
    MIXING:  cpu time    0.0046: real time    0.0046
    --------------------------------------------
      LOOP:  cpu time    0.3266: real time    0.3284

 eigenvalue-minimisations  :    48
 total energy-change (2. order) :-0.3098524E-06  (-0.9717327E-07)
 number of electron       8.0000000 magnetization 
 augmentation part        0.1840858 magnetization 

 Broyden mixing:
  rms(total) = 0.30020E-04    rms(broyden)= 0.29894E-04
  rms(prec ) = 0.38107E-04
  weight for this iteration     100.00

 eigenvalues of (default mixing * dielectric matrix)
  average eigenvalue GAMMA=   1.2837
  1.2837  1.2837

 Free energy of the ion-electron system (eV)
  ---------------------------------------------------
  alpha Z        PSCENC =         0.24456006
  Ewald energy   TEWEN  =       127.33114176
  -Hartree energ DENC   =      -283.24451046
  -exchange      EXHF   =         0.00000000
  -V(xc)+E(xc)   XCENC  =        24.69531290
  PAW double counting   =       461.10085812     -461.88485441
  entropy T*S    EENTRO =        -0.00000000
  eigenvalues    EBANDS =       -89.30378697
  atomic energy  EATOM  =       197.04175453
  Solvation  Ediel_sol  =         0.00000000
  ---------------------------------------------------
  free energy    TOTEN  =       -24.01952447 eV

  energy without entropy =      -24.01952447  energy(sigma->0) =      -24.01952447


--------------------------------------------------------------------------------------------------------




--------------------------------------- Iteration     10(   4)  ---------------------------------------


    POTLOK:  cpu time    0.1353: real time    0.1360
    SETDIJ:  cpu time    0.0019: real time    0.0019
    EDDIAG:  cpu time    0.0387: real time    0.0389
  RMM-DIIS:  cpu time    0.1264: real time    0.1270
    ORTHCH:  cpu time    0.0015: real time    0.0015
       DOS:  cpu time    0.0002: real time    0.0002
    --------------------------------------------
      LOOP:  cpu time    0.3039: real time    0.3055

 eigenvalue-minimisations  :    48
 total energy-change (2. order) :-0.2040769E-06  (-0.1420176E-07)
 number of electron       8.0000000 magnetization 
 augmentation part        0.1840858 magnetization 

 Free energy of the ion-electron system (eV)
  ---------------------------------------------------
  alpha Z        PSCENC =         0.24456006
  Ewald energy   TEWEN  =       127.33114176
  -Hartree energ DENC   =      -283.24511319
  -exchange      EXHF   =         0.00000000
  -V(xc)+E(xc)   XCENC  =        24.69534627
  PAW double counting   =       461.09860630     -461.88261062
  entropy T*S    EENTRO =        -0.00000000
  eigenvalues    EBANDS =       -89.30320979
  atomic energy  EATOM  =       197.04175453
  Solvation  Ediel_sol  =         0.00000000
  ---------------------------------------------------
  free energy    TOTEN  =       -24.01952468 eV

  energy without entropy =      -24.01952468  energy(sigma->0) =      -24.01952468


--------------------------------------------------------------------------------------------------------




 average (electrostatic) potential at core
  the test charge radii are     0.5201  0.6991
  (the norm of the test charge is              1.0000)
       1 -41.3955       2 -41.6295       3 -41.4334       4 -41.4025       5 -57.9870
 
 
 
 E-fermi :  -8.2089     XC(G=0):  -0.7029     alpha+bet : -0.2127


 k-point     1 :       0.2500    0.2500    0.2500
  band No.  band energies     occupation 
      1     -16.8486      2.00000
      2      -9.3555      2.00000
      3      -9.2520      2.00000
      4      -9.1954      2.00000
      5      -0.3121      0.00000
      6       0.5607      0.00000
      7       0.6600      0.00000
      8       0.6940      0.00000

 k-point     2 :      -0.2500    0.2500    0.2500
  band No.  band energies     occupation 
      1     -16.8486      2.00000
      2      -9.3555      2.00000
      3      -9.2519      2.00000
      4      -9.1955      2.00000
      5      -0.3191      0.00000
      6       0.5729      0.00000
      7       0.6774      0.00000
      8       0.7085      0.00000

 k-point     3 :       0.2500   -0.2500    0.2500
  band No.  band energies     occupation 
      1     -16.8486      2.00000
      2      -9.3556      2.00000
      3      -9.2520      2.00000
      4      -9.1955      2.00000
      5      -0.3210      0.00000
      6       0.5762      0.00000
      7       0.6792      0.00000
      8       0.7172      0.00000

 k-point     4 :      -0.2500   -0.2500    0.2500
  band No.  band energies     occupation 
      1     -16.8486      2.00000
      2      -9.3556      2.00000
      3      -9.2521      2.00000
      4      -9.1954      2.00000
      5      -0.3195      0.00000
      6       0.5733      0.00000
      7       0.6733      0.00000
      8       0.7181      0.00000


--------------------------------------------------------------------------------------------------------


 soft charge-density along one line, spin component           1
         0         1         2         3         4         5         6         7         8         9
 total charge-density along one line
 
 pseudopotential strength for first ion, spin component:           1
 -2.340  -4.032  -0.001  -0.001   0.001
 -4.032  -6.861  -0.003  -0.004   0.002
 -0.001  -0.003  -0.338   0.002  -0.001
 -0.001  -0.004   0.002  -0.337  -0.001
  0.001   0.002  -0.001  -0.001  -0.339
 total augmentation occupancy for first ion, spin component:           1
  3.499  -0.631   0.223   0.322  -0.141
 -0.631   0.128  -0.041  -0.060   0.026
  0.223  -0.041   0.020   0.017  -0.007
  0.322  -0.060   0.017   0.033  -0.011
 -0.141   0.026  -0.007  -0.011   0.013


------------------------ aborting loop because EDIFF is reached ----------------------------------------


    CHARGE:  cpu time    0.0187: real time    0.0187
    FORLOC:  cpu time    0.0132: real time    0.0132
    FORNL :  cpu time    0.0206: real time    0.0207
    STRESS:  cpu time    0.1543: real time    0.1615
    FORCOR:  cpu time    0.1448: real time    0.1478
    FORHAR:  cpu time    0.0450: real time    0.0452
    MIXING:  cpu time    0.0047: real time    0.0047
    OFIELD:  cpu time    0.0001: real time    0.0001

  FORCE on cell =-STRESS in cart. coord.  units (eV):
  Direction    XX          YY          ZZ          XY          YZ          ZX
  --------------------------------------------------------------------------------------
  Alpha Z     0.24456     0.24456     0.24456
  Ewald      41.50880    42.28588    43.53644    -0.74932    -0.82638    -0.31104
  Hartree    92.17630    94.59469    96.47426    -0.43110    -0.46831    -0.31115
  E(xc)     -27.16271   -27.15811   -27.16085    -0.00146    -0.00235    -0.00140
  Local    -191.94404  -195.87888  -199.21841     1.08907     1.20690     0.65041
  n-local   -15.85159   -15.76633   -15.75391     0.00379    -0.00217    -0.00574
  augment     0.11224     0.11999     0.12160     0.00075     0.00061    -0.00044
  Kinetic   100.94595   100.72119   100.85068     0.07020     0.12148     0.06266
  Fock        0.00000     0.00000     0.00000     0.00000     0.00000     0.00000
  -------------------------------------------------------------------------------------
  Total       0.02951    -0.83701    -0.90563    -0.01808     0.02978     0.08331
  in kB       0.04773    -1.35382    -1.46481    -0.02924     0.04817     0.13475
  external pressure =       -0.92 kB  Pullay stress =        0.00 kB

  kinetic pressure (ideal gas correction) =      0.01 kB
  total pressure  =     -0.92 kB
  Total+kin.     0.053      -1.350      -1.451      -0.030       0.054       0.138

 VOLUME and BASIS-vectors are now :
 -----------------------------------------------------------------------------
  energy-cutoff  :      400.00
  volume of cell :      990.56
      direct lattice vectors                 reciprocal lattice vectors
    10.137586422  0.000000000  0.000000000     0.098642809  0.002243321  0.001436922
    -0.226653359  9.966351330  0.000000000     0.000000000  0.100337623  0.002282124
    -0.137744751 -0.222989514  9.804126698     0.000000000  0.000000000  0.101997866

  length of vectors
    10.137586422  9.968928256  9.807629594     0.098678777  0.100363572  0.101997866


 FORCES acting on ions
    electron-ion (+dipol)            ewald-force                    non-local-force                 convergence-correction
 -----------------------------------------------------------------------------------------------
   -.176E+02 0.280E+02 0.404E+02   0.193E+02 -.307E+02 -.442E+02   -.180E+01 0.285E+01 0.411E+01   -.569E-05 -.669E-05 -.241E-04
   0.530E+02 -.575E+01 0.362E+01   -.592E+02 0.640E+01 -.404E+01   0.570E+01 -.620E+00 0.391E+00   -.309E-04 -.699E-05 -.141E-04
   -.229E+02 -.472E+02 0.677E+00   0.251E+02 0.518E+02 -.719E+00   -.235E+01 -.484E+01 0.803E-01   0.747E-05 0.348E-04 -.113E-04
   -.121E+02 0.248E+02 -.443E+02   0.133E+02 -.271E+02 0.485E+02   -.124E+01 0.254E+01 -.451E+01   -.119E-04 -.107E-04 0.896E-05
   -.121E+01 0.283E+00 -.434E+00   0.161E+01 -.382E+00 0.482E+00   0.453E+00 -.125E+00 -.224E-01   -.146E-04 -.489E-04 -.511E-04
 -----------------------------------------------------------------------------------------------
   -.758E+00 0.201E+00 -.482E-01   -.888E-14 -.355E-14 0.000E+00   0.758E+00 -.201E+00 0.481E-01   -.556E-04 -.385E-04 -.915E-04
 
 
 POSITION                                       TOTAL-FORCE (eV/Angst)
 -----------------------------------------------------------------------------------
      5.30789      3.96191      3.50838        -0.153729      0.202739      0.281543
      3.86097      4.67313      4.29310        -0.507771      0.036218     -0.036684
      5.41555      5.55113      4.35174        -0.100169     -0.230643      0.038754
      5.19125      4.02953      5.30804        -0.092420      0.215945     -0.309655
      4.93343      4.55695      4.36671         0.854054     -0.224347      0.025925
 -----------------------------------------------------------------------------------
    total drift:                               -0.000035     -0.000088     -0.000117


--------------------------------------------------------------------------------------------------------



  FREE ENERGIE OF THE ION-ELECTRON SYSTEM (eV)
  ---------------------------------------------------
  free  energy   TOTEN  =       -24.01952468 eV

  energy  without entropy=      -24.01952468  energy(sigma->0) =      -24.01952468
 
 d Force =-0.2333042E-02[-0.265E-02,-0.201E-02]  d Energy =-0.2332126E-02-0.916E-06
 d Force = 0.1572525E+00[ 0.157E+00, 0.157E+00]  d Ewald  = 0.1572532E+00-0.686E-06


--------------------------------------------------------------------------------------------------------


    POTLOK:  cpu time    0.1414: real time    0.1456


--------------------------------------------------------------------------------------------------------


 stress matrix after NEB project (eV)
      0.02951     -0.01808      0.08331
     -0.01808     -0.83701      0.02978
      0.08331      0.02978     -0.90563
  FORCES: max atom, RMS     0.883409    0.529281
  FORCE total and by dimension    1.183509    0.854054
  Stress total and by dimension    1.240131    0.905630
           RANDOM_SEED =         581385549               30                0
   IONSTEP:  cpu time    0.0002: real time    0.0002

  ENERGY OF THE ELECTRON-ION-THERMOSTAT SYSTEM (eV)
  ---------------------------------------------------
% ion-electron   TOTEN  =       -24.019525  see above
  kinetic energy EKIN   =         0.006219
  kin. lattice  EKIN_LAT=         0.000000  (temperature   12.03 K)
  nose potential ES     =         0.000000
  nose kinetic   EPS    =         0.000000
  ---------------------------------------------------
  total energy   ETOTAL =       -24.013305 eV

  maximum distance moved by ions :      0.31E-03


 mean value of Nose-termostat <S>:     1.000 mean value of <T> :    15.690
 mean temperature <T/S>/<1/S>  :    15.690

    WAVPRE:  cpu time    0.0494: real time    0.0523
    FEWALD:  cpu time    0.0007: real time    0.0007
    ORTHCH:  cpu time    0.0085: real time    0.0088
 Prediction of Wavefunctions ALPHA= 2.098 BETA=-1.125
    POTLOK:  cpu time    0.2960: real time    0.4238
    EDDIAG:  cpu time    0.0388: real time    0.0390
     LOOP+:  cpu time    2.2330: real time    2.3872
    4ORBIT:  cpu time    0.0000: real time    0.0009

 total amount of memory used by VASP MPI-rank0    54644. kBytes
=======================================================================

   base      :      30000. kBytes
   nonl-proj :       2671. kBytes
   fftplans  :       7852. kBytes
   grid      :      12378. kBytes
   one-center:          6. kBytes
   wavefun   :       1737. kBytes
 
  
  
 General timing and accounting informations for this job:
 ========================================================
  
                  Total CPU time used (sec):       29.086
                            User time (sec):       26.880
                          System time (sec):        2.206
                         Elapsed time (sec):       30.162
  
                   Maximum memory used (kb):      179296.
                   Average memory used (kb):           0.
  
                          Minor page faults:       242450
                          Major page faults:          129
                 Voluntary context switches:          569
