<?xml version="1.0" encoding="ISO-8859-1"?>
<modeling>
 <generator>
  <i name="program" type="string">vasp </i>
  <i name="version" type="string">5.4.4.18Apr17-6-g9f103f2a35  </i>
  <i name="subversion" type="string">(build Nov 25 2021 15:25:00) complex            parallel </i>
  <i name="platform" type="string">LinuxIFC </i>
  <i name="date" type="string">2022 02 21 </i>
  <i name="time" type="string">10:17:45 </i>
 </generator>
 <incar>
  <i type="string" name="PREC">a</i>
  <i type="string" name="ALGO">Fast</i>
  <i type="int" name="NELM">   120</i>
  <i type="int" name="NELMIN">     4</i>
  <i type="int" name="IBRION">     0</i>
  <i name="EDIFF">      0.00000100</i>
  <i type="int" name="NSW">    10</i>
  <i type="int" name="ISIF">     2</i>
  <i type="int" name="ISYM">     0</i>
  <i name="ENCUT">    400.00000000</i>
  <i name="POTIM">      0.50000000</i>
  <i type="logical" name="LREAL"> F  </i>
  <i type="int" name="ISMEAR">     0</i>
  <i name="SIGMA">      0.20000000</i>
  <i name="KSPACING">      0.50000000</i>
  <i type="logical" name="KGAMMA"> F  </i>
  <i name="PSTRESS">      0.00000000</i>
  <i type="logical" name="LWAVE"> F  </i>
  <i type="logical" name="LCHARG"> F  </i>
  <v type="int" name="KPOINT_BSE">    -1     0     0     0</v>
  <i type="int" name="NELM">   120</i>
 </incar>
 <structure name="primitive_cell" >
  <crystal>
   <varray name="basis" >
    <v>      10.13758642       0.00000000       0.00000000 </v>
    <v>      -0.22665336       9.96635133       0.00000000 </v>
    <v>      -0.13774475      -0.22298951       9.80412670 </v>
   </varray>
   <i name="volume">    990.55746955 </i>
   <varray name="rec_basis" >
    <v>       0.09864281       0.00224332       0.00143692 </v>
    <v>       0.00000000       0.10033762       0.00228212 </v>
    <v>       0.00000000       0.00000000       0.10199787 </v>
   </varray>
  </crystal>
  <varray name="positions" >
   <v>      -0.46178360       0.40679835       0.36049468 </v>
   <v>      -0.49659017       0.46713483       0.44549525 </v>
   <v>      -0.47150381       0.41624360      -0.46145572 </v>
   <v>      -0.44795959      -0.43449875       0.44268127 </v>
   <v>       0.39474579       0.47979817       0.43808212 </v>
  </varray>
 </structure>
 <varray name="primitive_index" >
  <v type="int" >        1 </v>
  <v type="int" >        5 </v>
  <v type="int" >        4 </v>
  <v type="int" >        3 </v>
  <v type="int" >        2 </v>
 </varray>
 <kpoints>
  <generation param="Monkhorst-Pack">
   <v type="int" name="divisions">       2        2        2 </v>
   <v name="usershift">      0.00000000       0.00000000       0.00000000 </v>
   <v name="genvec1">      0.50000000       0.00000000       0.00000000 </v>
   <v name="genvec2">      0.00000000       0.50000000       0.00000000 </v>
   <v name="genvec3">      0.00000000       0.00000000       0.50000000 </v>
   <v name="shift">      0.50000000       0.50000000       0.50000000 </v>
  </generation>
  <varray name="kpointlist" >
   <v>       0.25000000       0.25000000       0.25000000 </v>
   <v>      -0.25000000       0.25000000       0.25000000 </v>
   <v>       0.25000000      -0.25000000       0.25000000 </v>
   <v>      -0.25000000      -0.25000000       0.25000000 </v>
  </varray>
  <varray name="weights" >
   <v>       0.25000000 </v>
   <v>       0.25000000 </v>
   <v>       0.25000000 </v>
   <v>       0.25000000 </v>
  </varray>
 </kpoints>
 <parameters>
  <separator name="general" >
   <i type="string" name="SYSTEM">unknown system</i>
   <i type="logical" name="LCOMPAT"> F  </i>
  </separator>
  <separator name="electronic" >
   <i type="string" name="PREC">a</i>
   <i name="ENMAX">    400.00000000</i>
   <i name="ENAUG">    644.87300000</i>
   <i name="EDIFF">      0.00000100</i>
   <i type="int" name="IALGO">    68</i>
   <i type="int" name="IWAVPR">    12</i>
   <i type="int" name="NBANDS">     8</i>
   <i name="NELECT">      8.00000000</i>
   <i type="int" name="TURBO">     0</i>
   <i type="int" name="IRESTART">     0</i>
   <i type="int" name="NREBOOT">     0</i>
   <i type="int" name="NMIN">     0</i>
   <i name="EREF">      0.00000000</i>
   <separator name="electronic smearing" >
    <i type="int" name="ISMEAR">     0</i>
    <i name="SIGMA">      0.20000000</i>
    <i name="KSPACING">      0.50000000</i>
    <i type="logical" name="KGAMMA"> F  </i>
   </separator>
   <separator name="electronic projectors" >
    <i type="logical" name="LREAL"> F  </i>
    <v name="ROPT">      0.00000000      0.00000000</v>
    <i type="int" name="LMAXPAW">  -100</i>
    <i type="int" name="LMAXMIX">     2</i>
    <i type="logical" name="NLSPLINE"> F  </i>
   </separator>
   <separator name="electronic startup" >
    <i type="int" name="ISTART">     0</i>
    <i type="int" name="ICHARG">     2</i>
    <i type="int" name="INIWAV">     1</i>
   </separator>
   <separator name="electronic spin" >
    <i type="int" name="ISPIN">     1</i>
    <i type="logical" name="LNONCOLLINEAR"> F  </i>
    <v name="MAGMOM">      1.00000000      1.00000000      1.00000000      1.00000000      1.00000000</v>
    <i name="NUPDOWN">     -1.00000000</i>
    <i type="logical" name="LSORBIT"> F  </i>
    <v name="SAXIS">      0.00000000      0.00000000      1.00000000</v>
    <i type="logical" name="LSPIRAL"> F  </i>
    <v name="QSPIRAL">      0.00000000      0.00000000      0.00000000</v>
    <i type="logical" name="LZEROZ"> F  </i>
   </separator>
   <separator name="electronic exchange-correlation" >
    <i type="logical" name="LASPH"> F  </i>
    <i type="logical" name="LMETAGGA"> F  </i>
   </separator>
   <separator name="electronic convergence" >
    <i type="int" name="NELM">   120</i>
    <i type="int" name="NELMDL">    -5</i>
    <i type="int" name="NELMIN">     4</i>
    <i name="ENINI">    400.00000000</i>
    <separator name="electronic convergence detail" >
     <i type="logical" name="LDIAG"> T  </i>
     <i type="logical" name="LSUBROT"> F  </i>
     <i name="WEIMIN">      0.00100000</i>
     <i name="EBREAK">      0.00000003</i>
     <i name="DEPER">      0.30000000</i>
     <i type="int" name="NRMM">     4</i>
     <i name="TIME">      0.40000000</i>
    </separator>
   </separator>
   <separator name="electronic mixer" >
    <i name="AMIX">      0.40000000</i>
    <i name="BMIX">      1.00000000</i>
    <i name="AMIN">      0.10000000</i>
    <i name="AMIX_MAG">      1.60000000</i>
    <i name="BMIX_MAG">      1.00000000</i>
    <separator name="electronic mixer details" >
     <i type="int" name="IMIX">     4</i>
     <i type="logical" name="MIXFIRST"> F  </i>
     <i type="int" name="MAXMIX">   -45</i>
     <i name="WC">    100.00000000</i>
     <i type="int" name="INIMIX">     1</i>
     <i type="int" name="MIXPRE">     1</i>
     <i type="int" name="MREMOVE">     5</i>
    </separator>
   </separator>
   <separator name="electronic dipolcorrection" >
    <i type="logical" name="LDIPOL"> F  </i>
    <i type="logical" name="LMONO"> F  </i>
    <i type="int" name="IDIPOL">     0</i>
    <i name="EPSILON">      1.00000000</i>
    <v name="DIPOL">   -100.00000000   -100.00000000   -100.00000000</v>
    <i name="EFIELD">      0.00000000</i>
   </separator>
  </separator>
  <separator name="grids" >
   <i type="int" name="NGX">    70</i>
   <i type="int" name="NGY">    70</i>
   <i type="int" name="NGZ">    64</i>
   <i type="int" name="NGXF">   140</i>
   <i type="int" name="NGYF">   140</i>
   <i type="int" name="NGZF">   128</i>
   <i type="logical" name="ADDGRID"> F  </i>
  </separator>
  <separator name="ionic" >
   <i type="int" name="NSW">    10</i>
   <i type="int" name="IBRION">     0</i>
   <i type="int" name="MDALGO">     0</i>
   <i type="int" name="ISIF">     2</i>
   <i name="PSTRESS">      0.00000000</i>
   <i name="EDIFFG">      0.00001000</i>
   <i type="int" name="NFREE">     0</i>
   <i name="POTIM">      0.50000000</i>
   <i name="SMASS">     -3.00000000</i>
   <i name="SCALEE">      1.00000000</i>
  </separator>
  <separator name="ionic md" >
   <i name="TEBEG">      0.00010000</i>
   <i name="TEEND">      0.00010000</i>
   <i type="int" name="NBLOCK">     1</i>
   <i type="int" name="KBLOCK">    10</i>
   <i type="int" name="NPACO">   256</i>
   <i name="APACO">     16.00000000</i>
  </separator>
  <separator name="symmetry" >
   <i type="int" name="ISYM">     0</i>
   <i name="SYMPREC">      0.00001000</i>
  </separator>
  <separator name="dos" >
   <i type="int" name="LORBIT">     0</i>
   <v name="RWIGS">     -1.00000000     -1.00000000</v>
   <i type="int" name="NEDOS">   301</i>
   <i name="EMIN">     10.00000000</i>
   <i name="EMAX">    -10.00000000</i>
   <i name="EFERMI">      0.00000000</i>
  </separator>
  <separator name="writing" >
   <i type="int" name="NWRITE">     2</i>
   <i type="logical" name="LWAVE"> F  </i>
   <i type="logical" name="LDOWNSAMPLE"> F  </i>
   <i type="logical" name="LCHARG"> F  </i>
   <i type="logical" name="LPARD"> F  </i>
   <i type="logical" name="LVTOT"> F  </i>
   <i type="logical" name="LVHAR"> F  </i>
   <i type="logical" name="LELF"> F  </i>
   <i type="logical" name="LOPTICS"> F  </i>
   <v name="STM">      0.00000000      0.00000000      0.00000000      0.00000000      0.00000000      0.00000000      0.00000000</v>
  </separator>
  <separator name="performance" >
   <i type="int" name="NPAR">     4</i>
   <i type="int" name="NSIM">     4</i>
   <i type="int" name="NBLK">    -1</i>
   <i type="logical" name="LPLANE"> T  </i>
   <i type="logical" name="LSCALAPACK"> T  </i>
   <i type="logical" name="LSCAAWARE"> F  </i>
   <i type="logical" name="LSCALU"> F  </i>
   <i type="logical" name="LASYNC"> F  </i>
   <i type="logical" name="LORBITALREAL"> F  </i>
  </separator>
  <separator name="miscellaneous" >
   <i type="int" name="IDIOT">     3</i>
   <i type="int" name="ISPECIAL">     0</i>
   <i type="logical" name="LMUSIC"> F  </i>
   <v name="POMASS">      1.00000000     12.01100000</v>
   <v name="DARWINR">      0.00000000      0.00000000</v>
   <v name="DARWINV">      1.00000000      1.00000000</v>
   <i type="logical" name="LCORR"> T  </i>
  </separator>
  <i type="logical" name="GGA_COMPAT"> T  </i>
  <i type="logical" name="LBERRY"> F  </i>
  <i type="int" name="ICORELEVEL">     0</i>
  <i type="logical" name="LDAU"> F  </i>
  <i type="int" name="I_CONSTRAINED_M">     0</i>
  <separator name="electronic exchange-correlation" >
   <i type="string" name="GGA">--</i>
   <i type="int" name="VOSKOWN">     0</i>
   <i type="logical" name="LHFCALC"> F  </i>
   <i type="string" name="PRECFOCK"></i>
   <i type="logical" name="LSYMGRAD"> F  </i>
   <i type="logical" name="LHFONE"> F  </i>
   <i type="logical" name="LRHFCALC"> F  </i>
   <i type="logical" name="LTHOMAS"> F  </i>
   <i type="logical" name="LMODELHF"> F  </i>
   <i name="ENCUT4O">     -1.00000000</i>
   <i type="int" name="EXXOEP">     0</i>
   <i type="int" name="FOURORBIT">     0</i>
   <i name="AEXX">      0.00000000</i>
   <i name="HFALPHA">      0.00000000</i>
   <i name="MCALPHA">      0.00000000</i>
   <i name="ALDAX">      1.00000000</i>
   <i name="AGGAX">      1.00000000</i>
   <i name="ALDAC">      1.00000000</i>
   <i name="AGGAC">      1.00000000</i>
   <i type="int" name="NKREDX">     1</i>
   <i type="int" name="NKREDY">     1</i>
   <i type="int" name="NKREDZ">     1</i>
   <i type="logical" name="SHIFTRED"> F  </i>
   <i type="logical" name="ODDONLY"> F  </i>
   <i type="logical" name="EVENONLY"> F  </i>
   <i type="int" name="LMAXFOCK">     0</i>
   <i type="int" name="NMAXFOCKAE">     0</i>
   <i type="logical" name="LFOCKAEDFT"> F  </i>
   <i name="HFSCREEN">      0.00000000</i>
   <i name="HFSCREENC">      0.00000000</i>
   <i type="int" name="NBANDSGWLOW">     0</i>
  </separator>
  <separator name="vdW DFT" >
   <i type="logical" name="LUSE_VDW"> F  </i>
   <i name="Zab_VDW">     -0.84910000</i>
   <i name="PARAM1">      0.12340000</i>
   <i name="PARAM2">      1.00000000</i>
   <i name="PARAM3">      0.00000000</i>
  </separator>
  <separator name="model GW" >
   <i type="int" name="MODEL_GW">     0</i>
   <i name="MODEL_EPS0">    118.86689635</i>
   <i name="MODEL_ALPHA">      1.00000000</i>
  </separator>
  <separator name="linear response parameters" >
   <i type="logical" name="LEPSILON"> F  </i>
   <i type="logical" name="LRPA"> F  </i>
   <i type="logical" name="LNABLA"> F  </i>
   <i type="logical" name="LVEL"> F  </i>
   <i type="int" name="KINTER">     0</i>
   <i name="CSHIFT">      0.10000000</i>
   <i name="OMEGAMAX">     -1.00000000</i>
   <i name="DEG_THRESHOLD">      0.00200000</i>
   <i name="RTIME">     -0.10000000</i>
   <i name="WPLASMAI">      0.00000000</i>
   <v name="DFIELD">      0.00000000      0.00000000      0.00000000</v>
   <v name="WPLASMA">      0.00000000      0.00000000      0.00000000      0.00000000      0.00000000      0.00000000      0.00000000      0.00000000      0.00000000</v>
  </separator>
  <separator name="orbital magnetization" >
   <i type="logical" name="NUCIND"> F  </i>
   <v name="MAGPOS">      0.00000000      0.00000000      0.00000000</v>
   <i type="logical" name="LNICSALL"> T  </i>
   <i type="logical" name="ORBITALMAG"> F  </i>
   <i type="logical" name="LMAGBLOCH"> F  </i>
   <i type="logical" name="LCHIMAG"> F  </i>
   <i type="logical" name="LGAUGE"> T  </i>
   <i type="int" name="MAGATOM">     0</i>
   <v name="MAGDIPOL">      0.00000000      0.00000000      0.00000000</v>
   <v name="AVECCONST">      0.00000000      0.00000000      0.00000000</v>
  </separator>
  <separator name="response functions" >
   <i type="logical" name="LADDER"> F  </i>
   <i type="logical" name="LRPAFORCE"> F  </i>
   <i type="logical" name="LFXC"> F  </i>
   <i type="logical" name="LHARTREE"> T  </i>
   <i type="int" name="IBSE">     0</i>
   <v type="int" name="KPOINT">    -1     0     0     0</v>
   <i type="logical" name="LTCTE"> F  </i>
   <i type="logical" name="LTETE"> F  </i>
   <i type="logical" name="LTRIPLET"> F  </i>
   <i type="logical" name="LFXCEPS"> F  </i>
   <i type="logical" name="LFXHEG"> F  </i>
   <i type="int" name="NATURALO">     2</i>
   <i type="logical" name="L2ORDER"> F  </i>
   <i type="logical" name="LMP2LT"> F  </i>
   <i type="logical" name="LUSEW"> F  </i>
   <i name="ENCUTGW">     -2.00000000</i>
   <i name="ENCUTGWSOFT">     -2.00000000</i>
   <i name="ENCUTLF">     -1.00000000</i>
   <i type="int" name="LMAXMP2">    -1</i>
   <i name="SCISSOR">      0.00000000</i>
   <i type="int" name="NOMEGA">     0</i>
   <i type="int" name="NOMEGAR">     0</i>
   <i type="int" name="NBANDSGW">    -1</i>
   <i type="int" name="NBANDSO">    -1</i>
   <i type="int" name="NBANDSV">    -1</i>
   <i type="int" name="NELM">   120</i>
   <i type="int" name="NELMHF">     1</i>
   <i type="int" name="DIM">     3</i>
   <i type="int" name="ANTIRES">     0</i>
   <i name="OMEGAMAX">    -30.00000000</i>
   <i name="OMEGAMIN">    -30.00000000</i>
   <i name="OMEGATL">   -200.00000000</i>
   <i type="int" name="OMEGAGRID">   140</i>
   <i name="CSHIFT">     -0.10000000</i>
   <i type="logical" name="SELFENERGY"> F  </i>
   <i type="logical" name="LSPECTRAL"> F  </i>
   <i type="logical" name="LSPECTRALGW"> F  </i>
   <i type="logical" name="LSINGLES"> F  </i>
   <i type="logical" name="LFERMIGW"> F  </i>
   <i type="logical" name="ODDONLYGW"> F  </i>
   <i type="logical" name="EVENONLYGW"> F  </i>
   <i type="int" name="NKREDLFX">     1</i>
   <i type="int" name="NKREDLFY">     1</i>
   <i type="int" name="NKREDLFZ">     1</i>
   <i type="int" name="MAXMEM">  2800</i>
   <i type="int" name="TELESCOPE">     0</i>
   <i type="int" name="TAUPAR">     1</i>
   <i type="int" name="OMEGAPAR">    -1</i>
   <i name="LAMBDA">      1.00000000</i>
  </separator>
  <separator name="External order field" >
   <i name="OFIELD_KAPPA">      0.00000000</i>
   <v name="OFIELD_K">      0.00000000      0.00000000      0.00000000</v>
   <i name="OFIELD_Q6_NEAR">      0.00000000</i>
   <i name="OFIELD_Q6_FAR">      0.00000000</i>
   <i name="OFIELD_A">      0.00000000</i>
  </separator>
 </parameters>
 <atominfo>
  <atoms>       5 </atoms>
  <types>       2 </types>
  <array name="atoms" >
   <dimension dim="1">ion</dimension>
   <field type="string">element</field>
   <field type="int">atomtype</field>
   <set>
    <rc><c>H </c><c>   1</c></rc>
    <rc><c>H </c><c>   1</c></rc>
    <rc><c>H </c><c>   1</c></rc>
    <rc><c>H </c><c>   1</c></rc>
    <rc><c>C </c><c>   2</c></rc>
   </set>
  </array>
  <array name="atomtypes" >
   <dimension dim="1">type</dimension>
   <field type="int">atomspertype</field>
   <field type="string">element</field>
   <field>mass</field>
   <field>valence</field>
   <field type="string">pseudopotential</field>
   <set>
    <rc><c>   4</c><c>H </c><c>      1.00000000</c><c>      1.00000000</c><c>  PAW_PBE H 15Jun2001                   </c></rc>
    <rc><c>   1</c><c>C </c><c>     12.01100000</c><c>      4.00000000</c><c>  PAW_PBE C 08Apr2002                   </c></rc>
   </set>
  </array>
 </atominfo>
 <structure name="initialpos" >
  <crystal>
   <varray name="basis" >
    <v>      10.13758642       0.00000000       0.00000000 </v>
    <v>      -0.22665336       9.96635133       0.00000000 </v>
    <v>      -0.13774475      -0.22298951       9.80412670 </v>
   </varray>
   <i name="volume">    990.55746955 </i>
   <varray name="rec_basis" >
    <v>       0.09864281       0.00224332       0.00143692 </v>
    <v>       0.00000000       0.10033762       0.00228212 </v>
    <v>       0.00000000       0.00000000       0.10199787 </v>
   </varray>
  </crystal>
  <varray name="positions" >
   <v>       0.53821640       0.40679835       0.36049468 </v>
   <v>       0.39474579       0.47979817       0.43808212 </v>
   <v>       0.55204041       0.56550125       0.44268127 </v>
   <v>       0.52849619       0.41624360       0.53854428 </v>
   <v>       0.50340983       0.46713483       0.44549525 </v>
  </varray>
  <varray name="velocities" >
   <v>      -0.00000077      -0.00000088      -0.00000053 </v>
   <v>       0.00000040       0.00000032       0.00000069 </v>
   <v>      -0.00000009      -0.00000003      -0.00000026 </v>
   <v>       0.00000014      -0.00000011       0.00000025 </v>
   <v>       0.00000003       0.00000006      -0.00000001 </v>
  </varray>
 </structure>
 <calculation>
  <scstep>
   <time name="dav">    0.22    0.25</time>
   <time name="total">    0.38    0.43</time>
   <energy>
    <i name="alphaZ">      0.24456006 </i>
    <i name="ewald">    129.35804907 </i>
    <i name="hartreedc">   -244.13413355 </i>
    <i name="XCdc">     22.03396520 </i>
    <i name="pawpsdc">    117.05815612 </i>
    <i name="pawaedc">   -117.66307307 </i>
    <i name="eentropy">     -0.00000000 </i>
    <i name="bandstr">    -95.05474604 </i>
    <i name="atom">    197.04175453 </i>
    <i name="e_fr_energy">      8.88453233 </i>
    <i name="e_wo_entrp">      8.88453233 </i>
    <i name="e_0_energy">      8.88453233 </i>
   </energy>
  </scstep>
  <scstep>
   <time name="dav">    0.15    0.16</time>
   <time name="total">    0.15    0.16</time>
   <energy>
    <i name="e_fr_energy">    -24.14909053 </i>
    <i name="e_wo_entrp">    -24.14909053 </i>
    <i name="e_0_energy">    -24.14909053 </i>
   </energy>
  </scstep>
  <scstep>
   <time name="dav">    0.19    0.19</time>
   <time name="total">    0.19    0.19</time>
   <energy>
    <i name="e_fr_energy">    -27.48627497 </i>
    <i name="e_wo_entrp">    -27.48627497 </i>
    <i name="e_0_energy">    -27.48627497 </i>
   </energy>
  </scstep>
  <scstep>
   <time name="dav">    0.24    0.25</time>
   <time name="total">    0.24    0.25</time>
   <energy>
    <i name="e_fr_energy">    -27.60609311 </i>
    <i name="e_wo_entrp">    -27.60609311 </i>
    <i name="e_0_energy">    -27.60609311 </i>
   </energy>
  </scstep>
  <scstep>
   <time name="dav">    0.21    0.22</time>
   <time name="total">    0.24    0.25</time>
   <energy>
    <i name="e_fr_energy">    -27.60612588 </i>
    <i name="e_wo_entrp">    -27.60612588 </i>
    <i name="e_0_energy">    -27.60612588 </i>
   </energy>
  </scstep>
  <scstep>
   <time name="diag">    0.04    0.06</time>
   <time name="diis">    0.16    0.17</time>
   <time name="orth">    0.00    0.00</time>
   <time name="total">    0.38    0.41</time>
   <energy>
    <i name="e_fr_energy">    -24.65981925 </i>
    <i name="e_wo_entrp">    -24.65981925 </i>
    <i name="e_0_energy">    -24.65981925 </i>
   </energy>
  </scstep>
  <scstep>
   <time name="diag">    0.04    0.04</time>
   <time name="diis">    0.15    0.16</time>
   <time name="orth">    0.00    0.00</time>
   <time name="total">    0.36    0.38</time>
   <energy>
    <i name="e_fr_energy">    -24.15816880 </i>
    <i name="e_wo_entrp">    -24.15816880 </i>
    <i name="e_0_energy">    -24.15816880 </i>
   </energy>
  </scstep>
  <scstep>
   <time name="diag">    0.04    0.04</time>
   <time name="diis">    0.15    0.16</time>
   <time name="orth">    0.00    0.00</time>
   <time name="total">    0.36    0.37</time>
   <energy>
    <i name="e_fr_energy">    -24.01114633 </i>
    <i name="e_wo_entrp">    -24.01114633 </i>
    <i name="e_0_energy">    -24.01114633 </i>
   </energy>
  </scstep>
  <scstep>
   <time name="diag">    0.04    0.04</time>
   <time name="diis">    0.15    0.16</time>
   <time name="orth">    0.00    0.00</time>
   <time name="total">    0.36    0.37</time>
   <energy>
    <i name="e_fr_energy">    -24.00548090 </i>
    <i name="e_wo_entrp">    -24.00548090 </i>
    <i name="e_0_energy">    -24.00548090 </i>
   </energy>
  </scstep>
  <scstep>
   <time name="diag">    0.04    0.04</time>
   <time name="diis">    0.15    0.16</time>
   <time name="orth">    0.00    0.00</time>
   <time name="total">    0.35    0.37</time>
   <energy>
    <i name="e_fr_energy">    -23.99938158 </i>
    <i name="e_wo_entrp">    -23.99938158 </i>
    <i name="e_0_energy">    -23.99938158 </i>
   </energy>
  </scstep>
  <scstep>
   <time name="diag">    0.04    0.04</time>
   <time name="diis">    0.15    0.16</time>
   <time name="orth">    0.00    0.00</time>
   <time name="total">    0.35    0.36</time>
   <energy>
    <i name="e_fr_energy">    -23.99999575 </i>
    <i name="e_wo_entrp">    -23.99999575 </i>
    <i name="e_0_energy">    -23.99999575 </i>
   </energy>
  </scstep>
  <scstep>
   <time name="diag">    0.04    0.04</time>
   <time name="diis">    0.16    0.16</time>
   <time name="orth">    0.00    0.00</time>
   <time name="total">    0.34    0.36</time>
   <energy>
    <i name="e_fr_energy">    -24.00977785 </i>
    <i name="e_wo_entrp">    -24.00977785 </i>
    <i name="e_0_energy">    -24.00977785 </i>
   </energy>
  </scstep>
  <scstep>
   <time name="diag">    0.04    0.04</time>
   <time name="diis">    0.15    0.16</time>
   <time name="orth">    0.00    0.00</time>
   <time name="total">    0.34    0.36</time>
   <energy>
    <i name="e_fr_energy">    -24.01019614 </i>
    <i name="e_wo_entrp">    -24.01019614 </i>
    <i name="e_0_energy">    -24.01019614 </i>
   </energy>
  </scstep>
  <scstep>
   <time name="diag">    0.04    0.04</time>
   <time name="diis">    0.16    0.16</time>
   <time name="orth">    0.00    0.00</time>
   <time name="total">    0.36    0.36</time>
   <energy>
    <i name="e_fr_energy">    -24.01304440 </i>
    <i name="e_wo_entrp">    -24.01304440 </i>
    <i name="e_0_energy">    -24.01304440 </i>
   </energy>
  </scstep>
  <scstep>
   <time name="diag">    0.04    0.04</time>
   <time name="diis">    0.16    0.16</time>
   <time name="orth">    0.00    0.00</time>
   <time name="total">    0.35    0.36</time>
   <energy>
    <i name="e_fr_energy">    -24.01326905 </i>
    <i name="e_wo_entrp">    -24.01326905 </i>
    <i name="e_0_energy">    -24.01326905 </i>
   </energy>
  </scstep>
  <scstep>
   <time name="diag">    0.04    0.04</time>
   <time name="diis">    0.16    0.16</time>
   <time name="orth">    0.00    0.00</time>
   <time name="total">    0.35    0.36</time>
   <energy>
    <i name="e_fr_energy">    -24.01347431 </i>
    <i name="e_wo_entrp">    -24.01347431 </i>
    <i name="e_0_energy">    -24.01347431 </i>
   </energy>
  </scstep>
  <scstep>
   <time name="diag">    0.04    0.04</time>
   <time name="diis">    0.16    0.16</time>
   <time name="orth">    0.00    0.00</time>
   <time name="total">    0.35    0.36</time>
   <energy>
    <i name="e_fr_energy">    -24.01350068 </i>
    <i name="e_wo_entrp">    -24.01350068 </i>
    <i name="e_0_energy">    -24.01350068 </i>
   </energy>
  </scstep>
  <scstep>
   <time name="diag">    0.04    0.04</time>
   <time name="diis">    0.13    0.13</time>
   <time name="orth">    0.00    0.00</time>
   <time name="total">    0.33    0.33</time>
   <energy>
    <i name="e_fr_energy">    -24.01351452 </i>
    <i name="e_wo_entrp">    -24.01351452 </i>
    <i name="e_0_energy">    -24.01351452 </i>
   </energy>
  </scstep>
  <scstep>
   <time name="diag">    0.04    0.04</time>
   <time name="diis">    0.13    0.13</time>
   <time name="orth">    0.00    0.00</time>
   <time name="total">    0.32    0.33</time>
   <energy>
    <i name="e_fr_energy">    -24.01351781 </i>
    <i name="e_wo_entrp">    -24.01351781 </i>
    <i name="e_0_energy">    -24.01351781 </i>
   </energy>
  </scstep>
  <scstep>
   <time name="diag">    0.04    0.04</time>
   <time name="diis">    0.12    0.12</time>
   <time name="orth">    0.00    0.00</time>
   <time name="total">    0.32    0.33</time>
   <energy>
    <i name="e_fr_energy">    -24.01351899 </i>
    <i name="e_wo_entrp">    -24.01351899 </i>
    <i name="e_0_energy">    -24.01351899 </i>
   </energy>
  </scstep>
  <scstep>
   <time name="diag">    0.04    0.04</time>
   <time name="diis">    0.12    0.12</time>
   <time name="orth">    0.00    0.00</time>
   <time name="total">    0.29    0.30</time>
   <energy>
    <i name="alphaZ">      0.24456006 </i>
    <i name="ewald">    129.35804907 </i>
    <i name="hartreedc">   -285.02084912 </i>
    <i name="XCdc">     24.78901856 </i>
    <i name="pawpsdc">    473.24513398 </i>
    <i name="pawaedc">   -474.03626606 </i>
    <i name="eentropy">     -0.00000000 </i>
    <i name="bandstr">    -89.63492032 </i>
    <i name="atom">    197.04175453 </i>
    <i name="e_fr_energy">    -24.01351930 </i>
    <i name="e_wo_entrp">    -24.01351930 </i>
    <i name="e_0_energy">    -24.01351930 </i>
   </energy>
  </scstep>
  <structure>
   <crystal>
    <varray name="basis" >
     <v>      10.13758642       0.00000000       0.00000000 </v>
     <v>      -0.22665336       9.96635133       0.00000000 </v>
     <v>      -0.13774475      -0.22298951       9.80412670 </v>
    </varray>
    <i name="volume">    990.55746955 </i>
    <varray name="rec_basis" >
     <v>       0.09864281       0.00224332       0.00143692 </v>
     <v>       0.00000000       0.10033762       0.00228212 </v>
     <v>       0.00000000       0.00000000       0.10199787 </v>
    </varray>
   </crystal>
   <varray name="positions" >
    <v>       0.53821640       0.40679835       0.36049468 </v>
    <v>       0.39474579       0.47979817       0.43808212 </v>
    <v>       0.55204041       0.56550125       0.44268127 </v>
    <v>       0.52849619       0.41624360       0.53854428 </v>
    <v>       0.50340983       0.46713483       0.44549525 </v>
   </varray>
  </structure>
  <varray name="forces" >
   <v>      -0.01263035      -0.22121887      -0.41584916 </v>
   <v>       0.50468224      -0.14087637      -0.00939274 </v>
   <v>       0.13356716       0.25071920       0.12107464 </v>
   <v>       0.05986381      -0.07310449       0.45221969 </v>
   <v>      -0.68585554       0.18407279      -0.14812654 </v>
  </varray>
  <varray name="stress" >
   <v>      -1.39384345       0.27433358       0.04042324 </v>
   <v>       0.27433358       0.00839023       0.19344537 </v>
   <v>       0.04042324       0.19344537       0.59011434 </v>
  </varray>
  <energy>
   <i name="e_fr_energy">    -24.01351930 </i>
   <i name="e_wo_entrp">    -24.01351930 </i>
   <i name="e_0_energy">     -0.00000000 </i>
   <i name="kinetic">      0.00025929 </i>
   <i name="lattice kinetic">      0.00000000 </i>
   <i name="nosepot">      0.00000000 </i>
   <i name="nosekinetic">      0.00000000 </i>
   <i name="total">    -24.01326000 </i>
  </energy>
  <time name="totalsc">    7.29    7.56</time>
 </calculation>
 <calculation>
  <scstep>
   <time name="dav">    0.18    0.18</time>
   <time name="total">    0.34    0.34</time>
   <energy>
    <i name="alphaZ">      0.24456006 </i>
    <i name="ewald">    129.26390976 </i>
    <i name="hartreedc">   -284.97029320 </i>
    <i name="XCdc">     24.78644995 </i>
    <i name="pawpsdc">    473.25118813 </i>
    <i name="pawaedc">   -474.04233128 </i>
    <i name="eentropy">     -0.00000000 </i>
    <i name="bandstr">    -89.59073488 </i>
    <i name="atom">    197.04175453 </i>
    <i name="e_fr_energy">    -24.01549694 </i>
    <i name="e_wo_entrp">    -24.01549694 </i>
    <i name="e_0_energy">    -24.01549694 </i>
   </energy>
  </scstep>
  <scstep>
   <time name="diag">    0.04    0.04</time>
   <time name="diis">    0.16    0.16</time>
   <time name="orth">    0.00    0.00</time>
   <time name="total">    0.36    0.36</time>
   <energy>
    <i name="e_fr_energy">    -24.01549427 </i>
    <i name="e_wo_entrp">    -24.01549427 </i>
    <i name="e_0_energy">    -24.01549427 </i>
   </energy>
  </scstep>
  <scstep>
   <time name="diag">    0.04    0.04</time>
   <time name="diis">    0.16    0.16</time>
   <time name="orth">    0.00    0.00</time>
   <time name="total">    0.36    0.36</time>
   <energy>
    <i name="e_fr_energy">    -24.01549342 </i>
    <i name="e_wo_entrp">    -24.01549342 </i>
    <i name="e_0_energy">    -24.01549342 </i>
   </energy>
  </scstep>
  <scstep>
   <time name="diag">    0.04    0.04</time>
   <time name="diis">    0.13    0.13</time>
   <time name="orth">    0.00    0.00</time>
   <time name="total">    0.30    0.30</time>
   <energy>
    <i name="alphaZ">      0.24456006 </i>
    <i name="ewald">    129.26390976 </i>
    <i name="hartreedc">   -284.94152635 </i>
    <i name="XCdc">     24.78479504 </i>
    <i name="pawpsdc">    472.72684796 </i>
    <i name="pawaedc">   -473.51763094 </i>
    <i name="eentropy">     -0.00000000 </i>
    <i name="bandstr">    -89.61820337 </i>
    <i name="atom">    197.04175453 </i>
    <i name="e_fr_energy">    -24.01549331 </i>
    <i name="e_wo_entrp">    -24.01549331 </i>
    <i name="e_0_energy">    -24.01549331 </i>
   </energy>
  </scstep>
  <structure>
   <crystal>
    <varray name="basis" >
     <v>      10.13758642       0.00000000       0.00000000 </v>
     <v>      -0.22665336       9.96635133       0.00000000 </v>
     <v>      -0.13774475      -0.22298951       9.80412670 </v>
    </varray>
    <i name="volume">    990.55746955 </i>
    <varray name="rec_basis" >
     <v>       0.09864281       0.00224332       0.00143692 </v>
     <v>       0.00000000       0.10033762       0.00228212 </v>
     <v>       0.00000000       0.00000000       0.10199787 </v>
    </varray>
   </crystal>
   <varray name="positions" >
    <v>       0.53821000       0.40674165       0.36039184 </v>
    <v>       0.39486548       0.47976435       0.43808050 </v>
    <v>       0.55207388       0.56556257       0.44271080 </v>
    <v>       0.52851176       0.41622829       0.53865579 </v>
    <v>       0.50339632       0.46713854       0.44549221 </v>
   </varray>
  </structure>
  <varray name="forces" >
   <v>      -0.02173468      -0.20089802      -0.38396158 </v>
   <v>       0.46515641      -0.13472846      -0.01090826 </v>
   <v>       0.12380014       0.22864528       0.11920901 </v>
   <v>       0.05252803      -0.05713821       0.41741453 </v>
   <v>      -0.61958609       0.16353652      -0.14174690 </v>
  </varray>
  <varray name="stress" >
   <v>      -1.33685283       0.26543794       0.04695762 </v>
   <v>       0.26543794      -0.05431581       0.19020563 </v>
   <v>       0.04695762       0.19020563       0.50110606 </v>
  </varray>
  <energy>
   <i name="e_fr_energy">    -24.01549331 </i>
   <i name="e_wo_entrp">    -24.01549331 </i>
   <i name="e_0_energy">     -0.00000000 </i>
   <i name="kinetic">      0.00219437 </i>
   <i name="lattice kinetic">      0.00000000 </i>
   <i name="nosepot">      0.00000000 </i>
   <i name="nosekinetic">      0.00000000 </i>
   <i name="total">    -24.01329894 </i>
  </energy>
  <time name="totalsc">    1.95    1.96</time>
 </calculation>
 <calculation>
  <scstep>
   <time name="dav">    0.15    0.16</time>
   <time name="total">    0.31    0.31</time>
   <energy>
    <i name="alphaZ">      0.24456006 </i>
    <i name="ewald">    129.08621882 </i>
    <i name="hartreedc">   -284.79558063 </i>
    <i name="XCdc">     24.77688514 </i>
    <i name="pawpsdc">    471.49763416 </i>
    <i name="pawaedc">   -472.28782694 </i>
    <i name="eentropy">     -0.00000000 </i>
    <i name="bandstr">    -89.58246032 </i>
    <i name="atom">    197.04175453 </i>
    <i name="e_fr_energy">    -24.01881517 </i>
    <i name="e_wo_entrp">    -24.01881517 </i>
    <i name="e_0_energy">    -24.01881517 </i>
   </energy>
  </scstep>
  <scstep>
   <time name="diag">    0.04    0.04</time>
   <time name="diis">    0.15    0.16</time>
   <time name="orth">    0.00    0.00</time>
   <time name="total">    0.35    0.36</time>
   <energy>
    <i name="e_fr_energy">    -24.01882626 </i>
    <i name="e_wo_entrp">    -24.01882626 </i>
    <i name="e_0_energy">    -24.01882626 </i>
   </energy>
  </scstep>
  <scstep>
   <time name="diag">    0.04    0.04</time>
   <time name="diis">    0.15    0.15</time>
   <time name="orth">    0.00    0.00</time>
   <time name="total">    0.34    0.35</time>
   <energy>
    <i name="e_fr_energy">    -24.01882733 </i>
    <i name="e_wo_entrp">    -24.01882733 </i>
    <i name="e_0_energy">    -24.01882733 </i>
   </energy>
  </scstep>
  <scstep>
   <time name="diag">    0.04    0.04</time>
   <time name="diis">    0.12    0.13</time>
   <time name="orth">    0.00    0.00</time>
   <time name="total">    0.29    0.30</time>
   <energy>
    <i name="alphaZ">      0.24456006 </i>
    <i name="ewald">    129.08621882 </i>
    <i name="hartreedc">   -284.78963324 </i>
    <i name="XCdc">     24.77664193 </i>
    <i name="pawpsdc">    471.56106708 </i>
    <i name="pawaedc">   -472.35119784 </i>
    <i name="eentropy">     -0.00000000 </i>
    <i name="bandstr">    -89.58823887 </i>
    <i name="atom">    197.04175453 </i>
    <i name="e_fr_energy">    -24.01882753 </i>
    <i name="e_wo_entrp">    -24.01882753 </i>
    <i name="e_0_energy">    -24.01882753 </i>
   </energy>
  </scstep>
  <structure>
   <crystal>
    <varray name="basis" >
     <v>      10.13758642       0.00000000       0.00000000 </v>
     <v>      -0.22665336       9.96635133       0.00000000 </v>
     <v>      -0.13774475      -0.22298951       9.80412670 </v>
    </varray>
    <i name="volume">    990.55746955 </i>
    <varray name="rec_basis" >
     <v>       0.09864281       0.00224332       0.00143692 </v>
     <v>       0.00000000       0.10033762       0.00228212 </v>
     <v>       0.00000000       0.00000000       0.10199787 </v>
    </varray>
   </crystal>
   <varray name="positions" >
    <v>       0.53819600       0.40663422       0.36019454 </v>
    <v>       0.39509509       0.47969786       0.43807620 </v>
    <v>       0.55213846       0.56567990       0.44276966 </v>
    <v>       0.52854096       0.41620146       0.53887000 </v>
    <v>       0.50337056       0.46714548       0.44548626 </v>
   </varray>
  </structure>
  <varray name="forces" >
   <v>      -0.03861572      -0.16318817      -0.32474410 </v>
   <v>       0.38607737      -0.12241636      -0.01398925 </v>
   <v>       0.10532996       0.18802903       0.11545499 </v>
   <v>       0.03857818      -0.02771063       0.35261519 </v>
   <v>      -0.49262145       0.12513467      -0.12943004 </v>
  </varray>
  <varray name="stress" >
   <v>      -1.23009501       0.24767460       0.05942906 </v>
   <v>       0.24767460      -0.17881592       0.18391354 </v>
   <v>       0.05942906       0.18391354       0.32634726 </v>
  </varray>
  <energy>
   <i name="e_fr_energy">    -24.01882753 </i>
   <i name="e_wo_entrp">    -24.01882753 </i>
   <i name="e_0_energy">     -0.00000000 </i>
   <i name="kinetic">      0.00546564 </i>
   <i name="lattice kinetic">      0.00000000 </i>
   <i name="nosepot">      0.00000000 </i>
   <i name="nosekinetic">      0.00000000 </i>
   <i name="total">    -24.01336188 </i>
  </energy>
  <time name="totalsc">    1.87    1.91</time>
 </calculation>
 <calculation>
  <scstep>
   <time name="dav">    0.15    0.15</time>
   <time name="total">    0.31    0.31</time>
   <energy>
    <i name="alphaZ">      0.24456006 </i>
    <i name="ewald">    128.84295927 </i>
    <i name="hartreedc">   -284.55955696 </i>
    <i name="XCdc">     24.76462225 </i>
    <i name="pawpsdc">    470.07766360 </i>
    <i name="pawaedc">   -470.86664770 </i>
    <i name="eentropy">     -0.00000000 </i>
    <i name="bandstr">    -89.56786939 </i>
    <i name="atom">    197.04175453 </i>
    <i name="e_fr_energy">    -24.02251436 </i>
    <i name="e_wo_entrp">    -24.02251436 </i>
    <i name="e_0_energy">    -24.02251436 </i>
   </energy>
  </scstep>
  <scstep>
   <time name="diag">    0.04    0.04</time>
   <time name="diis">    0.15    0.16</time>
   <time name="orth">    0.00    0.00</time>
   <time name="total">    0.35    0.36</time>
   <energy>
    <i name="e_fr_energy">    -24.02251517 </i>
    <i name="e_wo_entrp">    -24.02251517 </i>
    <i name="e_0_energy">    -24.02251517 </i>
   </energy>
  </scstep>
  <scstep>
   <time name="diag">    0.04    0.04</time>
   <time name="diis">    0.15    0.15</time>
   <time name="orth">    0.00    0.00</time>
   <time name="total">    0.34    0.35</time>
   <energy>
    <i name="e_fr_energy">    -24.02251523 </i>
    <i name="e_wo_entrp">    -24.02251523 </i>
    <i name="e_0_energy">    -24.02251523 </i>
   </energy>
  </scstep>
  <scstep>
   <time name="diag">    0.04    0.04</time>
   <time name="diis">    0.13    0.13</time>
   <time name="orth">    0.00    0.00</time>
   <time name="total">    0.30    0.31</time>
   <energy>
    <i name="alphaZ">      0.24456006 </i>
    <i name="ewald">    128.84295927 </i>
    <i name="hartreedc">   -284.57900260 </i>
    <i name="XCdc">     24.76547742 </i>
    <i name="pawpsdc">    470.04001200 </i>
    <i name="pawaedc">   -470.82924536 </i>
    <i name="eentropy">     -0.00000000 </i>
    <i name="bandstr">    -89.54903084 </i>
    <i name="atom">    197.04175453 </i>
    <i name="e_fr_energy">    -24.02251553 </i>
    <i name="e_wo_entrp">    -24.02251553 </i>
    <i name="e_0_energy">    -24.02251553 </i>
   </energy>
  </scstep>
  <structure>
   <crystal>
    <varray name="basis" >
     <v>      10.13758642       0.00000000       0.00000000 </v>
     <v>      -0.22665336       9.96635133       0.00000000 </v>
     <v>      -0.13774475      -0.22298951       9.80412670 </v>
    </varray>
    <i name="volume">    990.55746955 </i>
    <varray name="rec_basis" >
     <v>       0.09864281       0.00224332       0.00143692 </v>
     <v>       0.00000000       0.10033762       0.00228212 </v>
     <v>       0.00000000       0.00000000       0.10199787 </v>
    </varray>
   </crystal>
   <varray name="positions" >
    <v>       0.53817082       0.40648551       0.35991734 </v>
    <v>       0.39541586       0.47960167       0.43806846 </v>
    <v>       0.55222953       0.56584337       0.44285693 </v>
    <v>       0.52858043       0.41616987       0.53917097 </v>
    <v>       0.50333508       0.46715489       0.44547766 </v>
   </varray>
  </structure>
  <varray name="forces" >
   <v>      -0.06125561      -0.11100461      -0.24241208 </v>
   <v>       0.27589639      -0.10513861      -0.01816254 </v>
   <v>       0.07922125       0.13059407       0.10993798 </v>
   <v>       0.01950564       0.01259739       0.26252002 </v>
   <v>      -0.31332042       0.07257775      -0.11185990 </v>
  </varray>
  <varray name="stress" >
   <v>      -1.07037532       0.22129230       0.07622968 </v>
   <v>       0.22129230      -0.34355489       0.17422026 </v>
   <v>       0.07622968       0.17422026       0.09107035 </v>
  </varray>
  <energy>
   <i name="e_fr_energy">    -24.02251553 </i>
   <i name="e_wo_entrp">    -24.02251553 </i>
   <i name="e_0_energy">     -0.00000000 </i>
   <i name="kinetic">      0.00908431 </i>
   <i name="lattice kinetic">      0.00000000 </i>
   <i name="nosepot">      0.00000000 </i>
   <i name="nosekinetic">      0.00000000 </i>
   <i name="total">    -24.01343122 </i>
  </energy>
  <time name="totalsc">    1.89    1.93</time>
 </calculation>
 <calculation>
  <scstep>
   <time name="dav">    0.16    0.17</time>
   <time name="total">    0.32    0.33</time>
   <energy>
    <i name="alphaZ">      0.24456006 </i>
    <i name="ewald">    128.55821562 </i>
    <i name="hartreedc">   -284.33669479 </i>
    <i name="XCdc">     24.75246099 </i>
    <i name="pawpsdc">    468.04526470 </i>
    <i name="pawaedc">   -468.83351594 </i>
    <i name="eentropy">     -0.00000000 </i>
    <i name="bandstr">    -89.49750109 </i>
    <i name="atom">    197.04175453 </i>
    <i name="e_fr_energy">    -24.02545591 </i>
    <i name="e_wo_entrp">    -24.02545591 </i>
    <i name="e_0_energy">    -24.02545591 </i>
   </energy>
  </scstep>
  <scstep>
   <time name="diag">    0.09    0.09</time>
   <time name="diis">    0.16    0.16</time>
   <time name="orth">    0.00    0.00</time>
   <time name="total">    0.41    0.42</time>
   <energy>
    <i name="e_fr_energy">    -24.02545955 </i>
    <i name="e_wo_entrp">    -24.02545955 </i>
    <i name="e_0_energy">    -24.02545955 </i>
   </energy>
  </scstep>
  <scstep>
   <time name="diag">    0.04    0.04</time>
   <time name="diis">    0.13    0.13</time>
   <time name="orth">    0.00    0.00</time>
   <time name="total">    0.33    0.33</time>
   <energy>
    <i name="e_fr_energy">    -24.02546097 </i>
    <i name="e_wo_entrp">    -24.02546097 </i>
    <i name="e_0_energy">    -24.02546097 </i>
   </energy>
  </scstep>
  <scstep>
   <time name="diag">    0.04    0.04</time>
   <time name="diis">    0.13    0.13</time>
   <time name="orth">    0.00    0.00</time>
   <time name="total">    0.33    0.33</time>
   <energy>
    <i name="e_fr_energy">    -24.02546413 </i>
    <i name="e_wo_entrp">    -24.02546413 </i>
    <i name="e_0_energy">    -24.02546413 </i>
   </energy>
  </scstep>
  <scstep>
   <time name="diag">    0.04    0.04</time>
   <time name="diis">    0.13    0.13</time>
   <time name="orth">    0.00    0.00</time>
   <time name="total">    0.31    0.31</time>
   <energy>
    <i name="alphaZ">      0.24456006 </i>
    <i name="ewald">    128.55821562 </i>
    <i name="hartreedc">   -284.33174738 </i>
    <i name="XCdc">     24.75232317 </i>
    <i name="pawpsdc">    468.21678808 </i>
    <i name="pawaedc">   -469.00497643 </i>
    <i name="eentropy">     -0.00000000 </i>
    <i name="bandstr">    -89.50238264 </i>
    <i name="atom">    197.04175453 </i>
    <i name="e_fr_energy">    -24.02546500 </i>
    <i name="e_wo_entrp">    -24.02546500 </i>
    <i name="e_0_energy">    -24.02546500 </i>
   </energy>
  </scstep>
  <structure>
   <crystal>
    <varray name="basis" >
     <v>      10.13758642       0.00000000       0.00000000 </v>
     <v>      -0.22665336       9.96635133       0.00000000 </v>
     <v>      -0.13774475      -0.22298951       9.80412670 </v>
    </varray>
    <i name="volume">    990.55746955 </i>
    <varray name="rec_basis" >
     <v>       0.09864281       0.00224332       0.00143692 </v>
     <v>       0.00000000       0.10033762       0.00228212 </v>
     <v>       0.00000000       0.00000000       0.10199787 </v>
    </varray>
   </crystal>
   <varray name="positions" >
    <v>       0.53812963       0.40630861       0.35958050 </v>
    <v>       0.39580164       0.47947995       0.43805625 </v>
    <v>       0.55234055       0.56603906       0.44297124 </v>
    <v>       0.52862552       0.41614278       0.53953652 </v>
    <v>       0.50329340       0.46716572       0.44546677 </v>
   </varray>
  </structure>
  <varray name="forces" >
   <v>      -0.08651365      -0.05020926      -0.14566712 </v>
   <v>       0.13910660      -0.08342714      -0.02317051 </v>
   <v>       0.04803169       0.06309800       0.10242989 </v>
   <v>      -0.00275627       0.05845745       0.15668626 </v>
   <v>      -0.09854291       0.01186361      -0.09026001 </v>
  </varray>
  <varray name="stress" >
   <v>      -0.87815798       0.18736543       0.09513273 </v>
   <v>       0.18736543      -0.54053464       0.16119201 </v>
   <v>       0.09513273       0.16119201      -0.19126283 </v>
  </varray>
  <energy>
   <i name="e_fr_energy">    -24.02546500 </i>
   <i name="e_wo_entrp">    -24.02546500 </i>
   <i name="e_0_energy">     -0.00000000 </i>
   <i name="kinetic">      0.01198587 </i>
   <i name="lattice kinetic">      0.00000000 </i>
   <i name="nosepot">      0.00000000 </i>
   <i name="nosekinetic">      0.00000000 </i>
   <i name="total">    -24.01347913 </i>
  </energy>
  <time name="totalsc">    2.29    2.31</time>
 </calculation>
 <calculation>
  <scstep>
   <time name="dav">    0.16    0.16</time>
   <time name="total">    0.31    0.32</time>
   <energy>
    <i name="alphaZ">      0.24456006 </i>
    <i name="ewald">    128.25770796 </i>
    <i name="hartreedc">   -284.07927946 </i>
    <i name="XCdc">     24.73906326 </i>
    <i name="pawpsdc">    466.55162451 </i>
    <i name="pawaedc">   -467.33887954 </i>
    <i name="eentropy">     -0.00000000 </i>
    <i name="bandstr">    -89.44340817 </i>
    <i name="atom">    197.04175453 </i>
    <i name="e_fr_energy">    -24.02685684 </i>
    <i name="e_wo_entrp">    -24.02685684 </i>
    <i name="e_0_energy">    -24.02685684 </i>
   </energy>
  </scstep>
  <scstep>
   <time name="diag">    0.04    0.04</time>
   <time name="diis">    0.15    0.15</time>
   <time name="orth">    0.00    0.00</time>
   <time name="total">    0.35    0.36</time>
   <energy>
    <i name="e_fr_energy">    -24.02685994 </i>
    <i name="e_wo_entrp">    -24.02685994 </i>
    <i name="e_0_energy">    -24.02685994 </i>
   </energy>
  </scstep>
  <scstep>
   <time name="diag">    0.04    0.04</time>
   <time name="diis">    0.13    0.13</time>
   <time name="orth">    0.00    0.00</time>
   <time name="total">    0.33    0.33</time>
   <energy>
    <i name="e_fr_energy">    -24.02686356 </i>
    <i name="e_wo_entrp">    -24.02686356 </i>
    <i name="e_0_energy">    -24.02686356 </i>
   </energy>
  </scstep>
  <scstep>
   <time name="diag">    0.04    0.04</time>
   <time name="diis">    0.13    0.13</time>
   <time name="orth">    0.00    0.00</time>
   <time name="total">    0.33    0.33</time>
   <energy>
    <i name="e_fr_energy">    -24.02686690 </i>
    <i name="e_wo_entrp">    -24.02686690 </i>
    <i name="e_0_energy">    -24.02686690 </i>
   </energy>
  </scstep>
  <scstep>
   <time name="diag">    0.04    0.04</time>
   <time name="diis">    0.12    0.13</time>
   <time name="orth">    0.00    0.00</time>
   <time name="total">    0.33    0.33</time>
   <energy>
    <i name="e_fr_energy">    -24.02687175 </i>
    <i name="e_wo_entrp">    -24.02687175 </i>
    <i name="e_0_energy">    -24.02687175 </i>
   </energy>
  </scstep>
  <scstep>
   <time name="diag">    0.04    0.04</time>
   <time name="diis">    0.12    0.12</time>
   <time name="orth">    0.00    0.00</time>
   <time name="total">    0.32    0.33</time>
   <energy>
    <i name="e_fr_energy">    -24.02687369 </i>
    <i name="e_wo_entrp">    -24.02687369 </i>
    <i name="e_0_energy">    -24.02687369 </i>
   </energy>
  </scstep>
  <scstep>
   <time name="diag">    0.04    0.04</time>
   <time name="diis">    0.12    0.12</time>
   <time name="orth">    0.00    0.00</time>
   <time name="total">    0.33    0.33</time>
   <energy>
    <i name="e_fr_energy">    -24.02687609 </i>
    <i name="e_wo_entrp">    -24.02687609 </i>
    <i name="e_0_energy">    -24.02687609 </i>
   </energy>
  </scstep>
  <scstep>
   <time name="diag">    0.04    0.04</time>
   <time name="diis">    0.11    0.11</time>
   <time name="orth">    0.00    0.00</time>
   <time name="total">    0.29    0.29</time>
   <energy>
    <i name="alphaZ">      0.24456006 </i>
    <i name="ewald">    128.25770796 </i>
    <i name="hartreedc">   -284.06978622 </i>
    <i name="XCdc">     24.73846615 </i>
    <i name="pawpsdc">    466.40853305 </i>
    <i name="pawaedc">   -467.19566837 </i>
    <i name="eentropy">     -0.00000000 </i>
    <i name="bandstr">    -89.45244358 </i>
    <i name="atom">    197.04175453 </i>
    <i name="e_fr_energy">    -24.02687643 </i>
    <i name="e_wo_entrp">    -24.02687643 </i>
    <i name="e_0_energy">    -24.02687643 </i>
   </energy>
  </scstep>
  <structure>
   <crystal>
    <varray name="basis" >
     <v>      10.13758642       0.00000000       0.00000000 </v>
     <v>      -0.22665336       9.96635133       0.00000000 </v>
     <v>      -0.13774475      -0.22298951       9.80412670 </v>
    </varray>
    <i name="volume">    990.55746955 </i>
    <varray name="rec_basis" >
     <v>       0.09864281       0.00224332       0.00143692 </v>
     <v>       0.00000000       0.10033762       0.00228212 </v>
     <v>       0.00000000       0.00000000       0.10199787 </v>
    </varray>
   </crystal>
   <varray name="positions" >
    <v>       0.53806708       0.40611875       0.35920782 </v>
    <v>       0.39622001       0.47933790       0.43803834 </v>
    <v>       0.55246369       0.56625059       0.44311076 </v>
    <v>       0.52867082       0.41613070       0.53994063 </v>
    <v>       0.50324975       0.46717674       0.44545403 </v>
   </varray>
  </structure>
  <varray name="forces" >
   <v>      -0.11125324       0.01373542      -0.04275734 </v>
   <v>      -0.01279588      -0.05881612      -0.02841611 </v>
   <v>       0.01419436      -0.00900130       0.09303984 </v>
   <v>      -0.02600144       0.10513334       0.04413423 </v>
   <v>       0.13560373      -0.05132325      -0.06595135 </v>
  </varray>
  <varray name="stress" >
   <v>      -0.66293723       0.14704808       0.11361344 </v>
   <v>       0.14704808      -0.74889323       0.14448018 </v>
   <v>       0.11361344       0.14448018      -0.49439412 </v>
  </varray>
  <energy>
   <i name="e_fr_energy">    -24.02687643 </i>
   <i name="e_wo_entrp">    -24.02687643 </i>
   <i name="e_0_energy">     -0.00000000 </i>
   <i name="kinetic">      0.01337380 </i>
   <i name="lattice kinetic">      0.00000000 </i>
   <i name="nosepot">      0.00000000 </i>
   <i name="nosekinetic">      0.00000000 </i>
   <i name="total">    -24.01350263 </i>
  </energy>
  <time name="totalsc">    3.19    3.21</time>
 </calculation>
 <calculation>
  <scstep>
   <time name="dav">    0.15    0.16</time>
   <time name="total">    0.31    0.31</time>
   <energy>
    <i name="alphaZ">      0.24456006 </i>
    <i name="ewald">    127.96595165 </i>
    <i name="hartreedc">   -283.80760123 </i>
    <i name="XCdc">     24.72466013 </i>
    <i name="pawpsdc">    464.72836093 </i>
    <i name="pawaedc">   -465.51443535 </i>
    <i name="eentropy">     -0.00000000 </i>
    <i name="bandstr">    -89.40967537 </i>
    <i name="atom">    197.04175453 </i>
    <i name="e_fr_energy">    -24.02642466 </i>
    <i name="e_wo_entrp">    -24.02642466 </i>
    <i name="e_0_energy">    -24.02642466 </i>
   </energy>
  </scstep>
  <scstep>
   <time name="diag">    0.04    0.04</time>
   <time name="diis">    0.16    0.16</time>
   <time name="orth">    0.00    0.00</time>
   <time name="total">    0.36    0.36</time>
   <energy>
    <i name="e_fr_energy">    -24.02642822 </i>
    <i name="e_wo_entrp">    -24.02642822 </i>
    <i name="e_0_energy">    -24.02642822 </i>
   </energy>
  </scstep>
  <scstep>
   <time name="diag">    0.04    0.04</time>
   <time name="diis">    0.12    0.13</time>
   <time name="orth">    0.00    0.00</time>
   <time name="total">    0.32    0.32</time>
   <energy>
    <i name="e_fr_energy">    -24.02643171 </i>
    <i name="e_wo_entrp">    -24.02643171 </i>
    <i name="e_0_energy">    -24.02643171 </i>
   </energy>
  </scstep>
  <scstep>
   <time name="diag">    0.04    0.04</time>
   <time name="diis">    0.13    0.13</time>
   <time name="orth">    0.00    0.00</time>
   <time name="total">    0.32    0.33</time>
   <energy>
    <i name="e_fr_energy">    -24.02643724 </i>
    <i name="e_wo_entrp">    -24.02643724 </i>
    <i name="e_0_energy">    -24.02643724 </i>
   </energy>
  </scstep>
  <scstep>
   <time name="diag">    0.04    0.04</time>
   <time name="diis">    0.12    0.12</time>
   <time name="orth">    0.00    0.00</time>
   <time name="total">    0.32    0.32</time>
   <energy>
    <i name="e_fr_energy">    -24.02644519 </i>
    <i name="e_wo_entrp">    -24.02644519 </i>
    <i name="e_0_energy">    -24.02644519 </i>
   </energy>
  </scstep>
  <scstep>
   <time name="diag">    0.04    0.04</time>
   <time name="diis">    0.12    0.12</time>
   <time name="orth">    0.00    0.00</time>
   <time name="total">    0.32    0.32</time>
   <energy>
    <i name="e_fr_energy">    -24.02644759 </i>
    <i name="e_wo_entrp">    -24.02644759 </i>
    <i name="e_0_energy">    -24.02644759 </i>
   </energy>
  </scstep>
  <scstep>
   <time name="diag">    0.04    0.04</time>
   <time name="diis">    0.12    0.12</time>
   <time name="orth">    0.00    0.00</time>
   <time name="total">    0.30    0.30</time>
   <energy>
    <i name="alphaZ">      0.24456006 </i>
    <i name="ewald">    127.96595165 </i>
    <i name="hartreedc">   -283.81242368 </i>
    <i name="XCdc">     24.72494341 </i>
    <i name="pawpsdc">    464.68947838 </i>
    <i name="pawaedc">   -465.47560307 </i>
    <i name="eentropy">     -0.00000000 </i>
    <i name="bandstr">    -89.40510948 </i>
    <i name="atom">    197.04175453 </i>
    <i name="e_fr_energy">    -24.02644820 </i>
    <i name="e_wo_entrp">    -24.02644820 </i>
    <i name="e_0_energy">    -24.02644820 </i>
   </energy>
  </scstep>
  <structure>
   <crystal>
    <varray name="basis" >
     <v>      10.13758642       0.00000000       0.00000000 </v>
     <v>      -0.22665336       9.96635133       0.00000000 </v>
     <v>      -0.13774475      -0.22298951       9.80412670 </v>
    </varray>
    <i name="volume">    990.55746955 </i>
    <varray name="rec_basis" >
     <v>       0.09864281       0.00224332       0.00143692 </v>
     <v>       0.00000000       0.10033762       0.00228212 </v>
     <v>       0.00000000       0.00000000       0.10199787 </v>
    </varray>
   </crystal>
   <varray name="positions" >
    <v>       0.53797800       0.40593199       0.35882462 </v>
    <v>       0.39663491       0.47918147       0.43801344 </v>
    <v>       0.55259049       0.56646046       0.44327316 </v>
    <v>       0.52871066       0.41614432       0.54035559 </v>
    <v>       0.50320875       0.46718671       0.44543993 </v>
   </varray>
  </structure>
  <varray name="forces" >
   <v>      -0.13260059       0.07543118       0.05817818 </v>
   <v>      -0.16753970      -0.03282916      -0.03321045 </v>
   <v>      -0.01982768      -0.07964085       0.08183085 </v>
   <v>      -0.04828478       0.14793814      -0.06621578 </v>
   <v>       0.36831651      -0.11113750      -0.04056147 </v>
  </varray>
  <varray name="stress" >
   <v>      -0.44255156       0.10258994       0.12915527 </v>
   <v>       0.10258994      -0.94963048       0.12441029 </v>
   <v>       0.12915527       0.12441029      -0.79349726 </v>
  </varray>
  <energy>
   <i name="e_fr_energy">    -24.02644820 </i>
   <i name="e_wo_entrp">    -24.02644820 </i>
   <i name="e_0_energy">     -0.00000000 </i>
   <i name="kinetic">      0.01296728 </i>
   <i name="lattice kinetic">      0.00000000 </i>
   <i name="nosepot">      0.00000000 </i>
   <i name="nosekinetic">      0.00000000 </i>
   <i name="total">    -24.01348093 </i>
  </energy>
  <time name="totalsc">    2.84    2.86</time>
 </calculation>
 <calculation>
  <scstep>
   <time name="dav">    0.18    0.18</time>
   <time name="total">    0.34    0.34</time>
   <energy>
    <i name="alphaZ">      0.24456006 </i>
    <i name="ewald">    127.70400970 </i>
    <i name="hartreedc">   -283.58166049 </i>
    <i name="XCdc">     24.71287192 </i>
    <i name="pawpsdc">    463.21842027 </i>
    <i name="pawaedc">   -464.00370848 </i>
    <i name="eentropy">     -0.00000000 </i>
    <i name="bandstr">    -89.36074840 </i>
    <i name="atom">    197.04175453 </i>
    <i name="e_fr_energy">    -24.02450089 </i>
    <i name="e_wo_entrp">    -24.02450089 </i>
    <i name="e_0_energy">    -24.02450089 </i>
   </energy>
  </scstep>
  <scstep>
   <time name="diag">    0.05    0.05</time>
   <time name="diis">    0.15    0.15</time>
   <time name="orth">    0.00    0.00</time>
   <time name="total">    0.37    0.37</time>
   <energy>
    <i name="e_fr_energy">    -24.02450237 </i>
    <i name="e_wo_entrp">    -24.02450237 </i>
    <i name="e_0_energy">    -24.02450237 </i>
   </energy>
  </scstep>
  <scstep>
   <time name="diag">    0.04    0.04</time>
   <time name="diis">    0.13    0.13</time>
   <time name="orth">    0.00    0.00</time>
   <time name="total">    0.33    0.33</time>
   <energy>
    <i name="e_fr_energy">    -24.02450287 </i>
    <i name="e_wo_entrp">    -24.02450287 </i>
    <i name="e_0_energy">    -24.02450287 </i>
   </energy>
  </scstep>
  <scstep>
   <time name="diag">    0.04    0.04</time>
   <time name="diis">    0.12    0.12</time>
   <time name="orth">    0.00    0.00</time>
   <time name="total">    0.33    0.33</time>
   <energy>
    <i name="e_fr_energy">    -24.02450408 </i>
    <i name="e_wo_entrp">    -24.02450408 </i>
    <i name="e_0_energy">    -24.02450408 </i>
   </energy>
  </scstep>
  <scstep>
   <time name="diag">    0.09    0.09</time>
   <time name="diis">    0.12    0.12</time>
   <time name="orth">    0.00    0.00</time>
   <time name="total">    0.36    0.36</time>
   <energy>
    <i name="alphaZ">      0.24456006 </i>
    <i name="ewald">    127.70400970 </i>
    <i name="hartreedc">   -283.57877748 </i>
    <i name="XCdc">     24.71273111 </i>
    <i name="pawpsdc">    463.18660626 </i>
    <i name="pawaedc">   -463.97184221 </i>
    <i name="eentropy">     -0.00000000 </i>
    <i name="bandstr">    -89.36354676 </i>
    <i name="atom">    197.04175453 </i>
    <i name="e_fr_energy">    -24.02450479 </i>
    <i name="e_wo_entrp">    -24.02450479 </i>
    <i name="e_0_energy">    -24.02450479 </i>
   </energy>
  </scstep>
  <structure>
   <crystal>
    <varray name="basis" >
     <v>      10.13758642       0.00000000       0.00000000 </v>
     <v>      -0.22665336       9.96635133       0.00000000 </v>
     <v>      -0.13774475      -0.22298951       9.80412670 </v>
    </varray>
    <i name="volume">    990.55746955 </i>
    <varray name="rec_basis" >
     <v>       0.09864281       0.00224332       0.00143692 </v>
     <v>       0.00000000       0.10033762       0.00228212 </v>
     <v>       0.00000000       0.00000000       0.10199787 </v>
    </varray>
   </crystal>
   <varray name="positions" >
    <v>       0.53785797       0.40576381       0.35845573 </v>
    <v>       0.39700966       0.47901691       0.43798037 </v>
    <v>       0.55271243       0.56665151       0.44345570 </v>
    <v>       0.52873958       0.41619338       0.54075426 </v>
    <v>       0.50317498       0.46719442       0.44542501 </v>
   </varray>
  </structure>
  <varray name="forces" >
   <v>      -0.14800186       0.12999950       0.14973410 </v>
   <v>      -0.31112458      -0.00720071      -0.03673818 </v>
   <v>      -0.05164882      -0.14326860       0.06891684 </v>
   <v>      -0.06772427       0.18270892      -0.16618353 </v>
   <v>       0.57833516      -0.16241212      -0.01572648 </v>
  </varray>
  <varray name="stress" >
   <v>      -0.23725632       0.05649433       0.13923078 </v>
   <v>       0.05649433      -1.12627450       0.10128891 </v>
   <v>       0.13923079       0.10128891      -1.06674611 </v>
  </varray>
  <energy>
   <i name="e_fr_energy">    -24.02450479 </i>
   <i name="e_wo_entrp">    -24.02450479 </i>
   <i name="e_0_energy">     -0.00000000 </i>
   <i name="kinetic">      0.01107787 </i>
   <i name="lattice kinetic">      0.00000000 </i>
   <i name="nosepot">      0.00000000 </i>
   <i name="nosekinetic">      0.00000000 </i>
   <i name="total">    -24.01342692 </i>
  </energy>
  <time name="totalsc">    2.33    2.34</time>
 </calculation>
 <calculation>
  <scstep>
   <time name="dav">    0.17    0.17</time>
   <time name="total">    0.34    0.35</time>
   <energy>
    <i name="alphaZ">      0.24456006 </i>
    <i name="ewald">    127.48839496 </i>
    <i name="hartreedc">   -283.38945716 </i>
    <i name="XCdc">     24.70286609 </i>
    <i name="pawpsdc">    462.01715755 </i>
    <i name="pawaedc">   -462.80173396 </i>
    <i name="eentropy">     -0.00000000 </i>
    <i name="bandstr">    -89.32539598 </i>
    <i name="atom">    197.04175453 </i>
    <i name="e_fr_energy">    -24.02185392 </i>
    <i name="e_wo_entrp">    -24.02185392 </i>
    <i name="e_0_energy">    -24.02185392 </i>
   </energy>
  </scstep>
  <scstep>
   <time name="diag">    0.04    0.04</time>
   <time name="diis">    0.15    0.15</time>
   <time name="orth">    0.00    0.00</time>
   <time name="total">    0.35    0.35</time>
   <energy>
    <i name="e_fr_energy">    -24.02185503 </i>
    <i name="e_wo_entrp">    -24.02185503 </i>
    <i name="e_0_energy">    -24.02185503 </i>
   </energy>
  </scstep>
  <scstep>
   <time name="diag">    0.04    0.04</time>
   <time name="diis">    0.13    0.13</time>
   <time name="orth">    0.00    0.00</time>
   <time name="total">    0.33    0.33</time>
   <energy>
    <i name="e_fr_energy">    -24.02185532 </i>
    <i name="e_wo_entrp">    -24.02185532 </i>
    <i name="e_0_energy">    -24.02185532 </i>
   </energy>
  </scstep>
  <scstep>
   <time name="diag">    0.04    0.04</time>
   <time name="diis">    0.13    0.13</time>
   <time name="orth">    0.00    0.00</time>
   <time name="total">    0.32    0.33</time>
   <energy>
    <i name="e_fr_energy">    -24.02185665 </i>
    <i name="e_wo_entrp">    -24.02185665 </i>
    <i name="e_0_energy">    -24.02185665 </i>
   </energy>
  </scstep>
  <scstep>
   <time name="diag">    0.04    0.04</time>
   <time name="diis">    0.11    0.11</time>
   <time name="orth">    0.00    0.00</time>
   <time name="total">    0.29    0.29</time>
   <energy>
    <i name="alphaZ">      0.24456006 </i>
    <i name="ewald">    127.48839496 </i>
    <i name="hartreedc">   -283.38595126 </i>
    <i name="XCdc">     24.70268685 </i>
    <i name="pawpsdc">    461.97169638 </i>
    <i name="pawaedc">   -462.75622151 </i>
    <i name="eentropy">     -0.00000000 </i>
    <i name="bandstr">    -89.32877681 </i>
    <i name="atom">    197.04175453 </i>
    <i name="e_fr_energy">    -24.02185680 </i>
    <i name="e_wo_entrp">    -24.02185680 </i>
    <i name="e_0_energy">    -24.02185680 </i>
   </energy>
  </scstep>
  <structure>
   <crystal>
    <varray name="basis" >
     <v>      10.13758642       0.00000000       0.00000000 </v>
     <v>      -0.22665336       9.96635133       0.00000000 </v>
     <v>      -0.13774475      -0.22298951       9.80412670 </v>
    </varray>
    <i name="volume">    990.55746955 </i>
    <varray name="rec_basis" >
     <v>       0.09864281       0.00224332       0.00143692 </v>
     <v>       0.00000000       0.10033762       0.00228212 </v>
     <v>       0.00000000       0.00000000       0.10199787 </v>
    </varray>
   </crystal>
   <varray name="positions" >
    <v>       0.53770395       0.40562791       0.35812368 </v>
    <v>       0.39731022       0.47885041       0.43793825 </v>
    <v>       0.55282154       0.56680826       0.44365519 </v>
    <v>       0.52875281       0.41628575       0.54111204 </v>
    <v>       0.50315259       0.46719886       0.44540976 </v>
   </varray>
  </structure>
  <varray name="forces" >
   <v>      -0.15549578       0.17346844       0.22580083 </v>
   <v>      -0.42864632       0.01629328      -0.03813495 </v>
   <v>      -0.07903835      -0.19495567       0.05447977 </v>
   <v>      -0.08281893       0.20619119      -0.24911966 </v>
   <v>       0.74596969      -0.20117989       0.00690595 </v>
  </varray>
  <varray name="stress" >
   <v>      -0.06757932       0.01164278       0.14164764 </v>
   <v>       0.01164278      -1.26447235       0.07560998 </v>
   <v>       0.14164764       0.07560998      -1.29529152 </v>
  </varray>
  <energy>
   <i name="e_fr_energy">    -24.02185680 </i>
   <i name="e_wo_entrp">    -24.02185680 </i>
   <i name="e_0_energy">     -0.00000000 </i>
   <i name="kinetic">      0.00849625 </i>
   <i name="lattice kinetic">      0.00000000 </i>
   <i name="nosepot">      0.00000000 </i>
   <i name="nosekinetic">      0.00000000 </i>
   <i name="total">    -24.01336055 </i>
  </energy>
  <time name="totalsc">    2.22    2.24</time>
 </calculation>
 <calculation>
  <scstep>
   <time name="dav">    0.15    0.15</time>
   <time name="total">    0.31    0.32</time>
   <energy>
    <i name="alphaZ">      0.24456006 </i>
    <i name="ewald">    127.33114176 </i>
    <i name="hartreedc">   -283.25507915 </i>
    <i name="XCdc">     24.69583460 </i>
    <i name="pawpsdc">    461.12507194 </i>
    <i name="pawaedc">   -461.90919380 </i>
    <i name="eentropy">     -0.00000000 </i>
    <i name="bandstr">    -89.29361384 </i>
    <i name="atom">    197.04175453 </i>
    <i name="e_fr_energy">    -24.01952390 </i>
    <i name="e_wo_entrp">    -24.01952390 </i>
    <i name="e_0_energy">    -24.01952390 </i>
   </energy>
  </scstep>
  <scstep>
   <time name="diag">    0.04    0.04</time>
   <time name="diis">    0.15    0.15</time>
   <time name="orth">    0.00    0.00</time>
   <time name="total">    0.35    0.35</time>
   <energy>
    <i name="e_fr_energy">    -24.01952416 </i>
    <i name="e_wo_entrp">    -24.01952416 </i>
    <i name="e_0_energy">    -24.01952416 </i>
   </energy>
  </scstep>
  <scstep>
   <time name="diag">    0.04    0.04</time>
   <time name="diis">    0.13    0.13</time>
   <time name="orth">    0.00    0.00</time>
   <time name="total">    0.33    0.33</time>
   <energy>
    <i name="e_fr_energy">    -24.01952447 </i>
    <i name="e_wo_entrp">    -24.01952447 </i>
    <i name="e_0_energy">    -24.01952447 </i>
   </energy>
  </scstep>
  <scstep>
   <time name="diag">    0.04    0.04</time>
   <time name="diis">    0.13    0.13</time>
   <time name="orth">    0.00    0.00</time>
   <time name="total">    0.30    0.31</time>
   <energy>
    <i name="alphaZ">      0.24456006 </i>
    <i name="ewald">    127.33114176 </i>
    <i name="hartreedc">   -283.24511319 </i>
    <i name="XCdc">     24.69534627 </i>
    <i name="pawpsdc">    461.09860630 </i>
    <i name="pawaedc">   -461.88261062 </i>
    <i name="eentropy">     -0.00000000 </i>
    <i name="bandstr">    -89.30320979 </i>
    <i name="atom">    197.04175453 </i>
    <i name="e_fr_energy">    -24.01952468 </i>
    <i name="e_wo_entrp">    -24.01952468 </i>
    <i name="e_0_energy">    -24.01952468 </i>
   </energy>
  </scstep>
  <structure>
   <crystal>
    <varray name="basis" >
     <v>      10.13758642       0.00000000       0.00000000 </v>
     <v>      -0.22665336       9.96635133       0.00000000 </v>
     <v>      -0.13774475      -0.22298951       9.80412670 </v>
    </varray>
    <i name="volume">    990.55746955 </i>
    <varray name="rec_basis" >
     <v>       0.09864281       0.00224332       0.00143692 </v>
     <v>       0.00000000       0.10033762       0.00228212 </v>
     <v>       0.00000000       0.00000000       0.10199787 </v>
    </varray>
   </crystal>
   <varray name="positions" >
    <v>       0.53751465       0.40553525       0.35784719 </v>
    <v>       0.39750874       0.47868765       0.43788676 </v>
    <v>       0.55291098       0.56691814       0.44386809 </v>
    <v>       0.52874658       0.41642665       0.54140853 </v>
    <v>       0.50314490       0.46719925       0.44539466 </v>
   </varray>
  </structure>
  <varray name="forces" >
   <v>      -0.15372935       0.20273938       0.28154268 </v>
   <v>      -0.50777050       0.03621809      -0.03668446 </v>
   <v>      -0.10016870      -0.23064312       0.03875444 </v>
   <v>      -0.09242016       0.21594491      -0.30965500 </v>
   <v>       0.85405374      -0.22434723       0.02592531 </v>
  </varray>
  <varray name="stress" >
   <v>       0.04772773      -0.02923667       0.13475204 </v>
   <v>      -0.02923667      -1.35381642       0.04816936 </v>
   <v>       0.13475204       0.04816936      -1.46481143 </v>
  </varray>
  <energy>
   <i name="e_fr_energy">    -24.01952468 </i>
   <i name="e_wo_entrp">    -24.01952468 </i>
   <i name="e_0_energy">     -0.00000000 </i>
   <i name="kinetic">      0.00621934 </i>
   <i name="lattice kinetic">      0.00000000 </i>
   <i name="nosepot">      0.00000000 </i>
   <i name="nosekinetic">      0.00000000 </i>
   <i name="total">    -24.01330533 </i>
  </energy>
  <dos>
   <i name="efermi">     -8.20894169 </i>
   <total>
    <array>
     <dimension dim="1">gridpoints</dimension>
     <dimension dim="2">spin</dimension>
     <field>energy</field>
     <field>total</field>
     <field>integrated</field>
     <set>
      <set comment="spin 1">
       <r>   -18.8486     0.0000     0.0000 </r>
       <r>   -18.7767     0.0000     0.0000 </r>
       <r>   -18.7048     0.0000     0.0000 </r>
       <r>   -18.6329     0.0000     0.0000 </r>
       <r>   -18.5611     0.0000     0.0000 </r>
       <r>   -18.4892     0.0000     0.0000 </r>
       <r>   -18.4173     0.0000     0.0000 </r>
       <r>   -18.3454     0.0000     0.0000 </r>
       <r>   -18.2735     0.0000     0.0000 </r>
       <r>   -18.2016     0.0000     0.0000 </r>
       <r>   -18.1297     0.0000     0.0000 </r>
       <r>   -18.0578     0.0000     0.0000 </r>
       <r>   -17.9859     0.0000     0.0000 </r>
       <r>   -17.9141     0.0000     0.0000 </r>
       <r>   -17.8422     0.0000     0.0000 </r>
       <r>   -17.7703     0.0000     0.0000 </r>
       <r>   -17.6984     0.0000     0.0000 </r>
       <r>   -17.6265     0.0000     0.0000 </r>
       <r>   -17.5546     0.0001     0.0000 </r>
       <r>   -17.4827     0.0010     0.0001 </r>
       <r>   -17.4108     0.0094     0.0008 </r>
       <r>   -17.3389     0.0680     0.0057 </r>
       <r>   -17.2671     0.3797     0.0330 </r>
       <r>   -17.1952     1.6436     0.1514 </r>
       <r>   -17.1233     5.5178     0.5488 </r>
       <r>   -17.0514    14.3676     1.5836 </r>
       <r>   -16.9795    29.0208     3.6737 </r>
       <r>   -16.9076    45.4770     6.9490 </r>
       <r>   -16.8357    55.2924    10.9312 </r>
       <r>   -16.7638    52.1613    14.6878 </r>
       <r>   -16.6919    38.1808    17.4375 </r>
       <r>   -16.6201    21.6841    18.9992 </r>
       <r>   -16.5482     9.5546    19.6873 </r>
       <r>   -16.4763     3.2660    19.9225 </r>
       <r>   -16.4044     0.8660    19.9849 </r>
       <r>   -16.3325     0.1781    19.9977 </r>
       <r>   -16.2606     0.0284    19.9997 </r>
       <r>   -16.1887     0.0035    20.0000 </r>
       <r>   -16.1168     0.0003    20.0000 </r>
       <r>   -16.0449     0.0000    20.0000 </r>
       <r>   -15.9730     0.0000    20.0000 </r>
       <r>   -15.9012     0.0000    20.0000 </r>
       <r>   -15.8293     0.0000    20.0000 </r>
       <r>   -15.7574     0.0000    20.0000 </r>
       <r>   -15.6855     0.0000    20.0000 </r>
       <r>   -15.6136     0.0000    20.0000 </r>
       <r>   -15.5417     0.0000    20.0000 </r>
       <r>   -15.4698     0.0000    20.0000 </r>
       <r>   -15.3979     0.0000    20.0000 </r>
       <r>   -15.3260     0.0000    20.0000 </r>
       <r>   -15.2542     0.0000    20.0000 </r>
       <r>   -15.1823     0.0000    20.0000 </r>
       <r>   -15.1104     0.0000    20.0000 </r>
       <r>   -15.0385     0.0000    20.0000 </r>
       <r>   -14.9666     0.0000    20.0000 </r>
       <r>   -14.8947     0.0000    20.0000 </r>
       <r>   -14.8228     0.0000    20.0000 </r>
       <r>   -14.7509     0.0000    20.0000 </r>
       <r>   -14.6790     0.0000    20.0000 </r>
       <r>   -14.6072     0.0000    20.0000 </r>
       <r>   -14.5353     0.0000    20.0000 </r>
       <r>   -14.4634     0.0000    20.0000 </r>
       <r>   -14.3915     0.0000    20.0000 </r>
       <r>   -14.3196     0.0000    20.0000 </r>
       <r>   -14.2477     0.0000    20.0000 </r>
       <r>   -14.1758     0.0000    20.0000 </r>
       <r>   -14.1039     0.0000    20.0000 </r>
       <r>   -14.0320     0.0000    20.0000 </r>
       <r>   -13.9601     0.0000    20.0000 </r>
       <r>   -13.8883     0.0000    20.0000 </r>
       <r>   -13.8164     0.0000    20.0000 </r>
       <r>   -13.7445     0.0000    20.0000 </r>
       <r>   -13.6726     0.0000    20.0000 </r>
       <r>   -13.6007     0.0000    20.0000 </r>
       <r>   -13.5288     0.0000    20.0000 </r>
       <r>   -13.4569     0.0000    20.0000 </r>
       <r>   -13.3850     0.0000    20.0000 </r>
       <r>   -13.3131     0.0000    20.0000 </r>
       <r>   -13.2413     0.0000    20.0000 </r>
       <r>   -13.1694     0.0000    20.0000 </r>
       <r>   -13.0975     0.0000    20.0000 </r>
       <r>   -13.0256     0.0000    20.0000 </r>
       <r>   -12.9537     0.0000    20.0000 </r>
       <r>   -12.8818     0.0000    20.0000 </r>
       <r>   -12.8099     0.0000    20.0000 </r>
       <r>   -12.7380     0.0000    20.0000 </r>
       <r>   -12.6661     0.0000    20.0000 </r>
       <r>   -12.5943     0.0000    20.0000 </r>
       <r>   -12.5224     0.0000    20.0000 </r>
       <r>   -12.4505     0.0000    20.0000 </r>
       <r>   -12.3786     0.0000    20.0000 </r>
       <r>   -12.3067     0.0000    20.0000 </r>
       <r>   -12.2348     0.0000    20.0000 </r>
       <r>   -12.1629     0.0000    20.0000 </r>
       <r>   -12.0910     0.0000    20.0000 </r>
       <r>   -12.0191     0.0000    20.0000 </r>
       <r>   -11.9473     0.0000    20.0000 </r>
       <r>   -11.8754     0.0000    20.0000 </r>
       <r>   -11.8035     0.0000    20.0000 </r>
       <r>   -11.7316     0.0000    20.0000 </r>
       <r>   -11.6597     0.0000    20.0000 </r>
       <r>   -11.5878     0.0000    20.0000 </r>
       <r>   -11.5159     0.0000    20.0000 </r>
       <r>   -11.4440     0.0000    20.0000 </r>
       <r>   -11.3721     0.0000    20.0000 </r>
       <r>   -11.3002     0.0000    20.0000 </r>
       <r>   -11.2284     0.0000    20.0000 </r>
       <r>   -11.1565     0.0000    20.0000 </r>
       <r>   -11.0846     0.0000    20.0000 </r>
       <r>   -11.0127     0.0000    20.0000 </r>
       <r>   -10.9408     0.0000    20.0000 </r>
       <r>   -10.8689     0.0000    20.0000 </r>
       <r>   -10.7970     0.0000    20.0000 </r>
       <r>   -10.7251     0.0000    20.0000 </r>
       <r>   -10.6532     0.0000    20.0000 </r>
       <r>   -10.5814     0.0000    20.0000 </r>
       <r>   -10.5095     0.0000    20.0000 </r>
       <r>   -10.4376     0.0000    20.0000 </r>
       <r>   -10.3657     0.0000    20.0000 </r>
       <r>   -10.2938     0.0000    20.0000 </r>
       <r>   -10.2219     0.0000    20.0000 </r>
       <r>   -10.1500     0.0000    20.0000 </r>
       <r>   -10.0781     0.0001    20.0000 </r>
       <r>   -10.0062     0.0007    20.0001 </r>
       <r>    -9.9344     0.0065    20.0005 </r>
       <r>    -9.8625     0.0506    20.0042 </r>
       <r>    -9.7906     0.3063    20.0262 </r>
       <r>    -9.7187     1.4561    20.1311 </r>
       <r>    -9.6468     5.4482    20.5236 </r>
       <r>    -9.5749    16.1181    21.6845 </r>
       <r>    -9.5030    37.9331    24.4167 </r>
       <r>    -9.4311    71.5888    29.5727 </r>
       <r>    -9.3592   109.4506    37.4553 </r>
       <r>    -9.2874   137.1756    47.3343 </r>
       <r>    -9.2155   142.5724    57.6018 </r>
       <r>    -9.1436   123.8651    66.5222 </r>
       <r>    -9.0717    90.0606    73.0084 </r>
       <r>    -8.9998    54.4535    76.9303 </r>
       <r>    -8.9279    27.0623    78.8796 </r>
       <r>    -8.8560    10.9092    79.6654 </r>
       <r>    -8.7841     3.5244    79.9193 </r>
       <r>    -8.7122     0.9039    79.9845 </r>
       <r>    -8.6403     0.1827    79.9976 </r>
       <r>    -8.5685     0.0290    79.9997 </r>
       <r>    -8.4966     0.0036    80.0000 </r>
       <r>    -8.4247     0.0003    80.0000 </r>
       <r>    -8.3528     0.0000    80.0000 </r>
       <r>    -8.2809     0.0000    80.0000 </r>
       <r>    -8.2090     0.0000    80.0000 </r>
       <r>    -8.1371     0.0000    80.0000 </r>
       <r>    -8.0652     0.0000    80.0000 </r>
       <r>    -7.9933     0.0000    80.0000 </r>
       <r>    -7.9215     0.0000    80.0000 </r>
       <r>    -7.8496     0.0000    80.0000 </r>
       <r>    -7.7777     0.0000    80.0000 </r>
       <r>    -7.7058     0.0000    80.0000 </r>
       <r>    -7.6339     0.0000    80.0000 </r>
       <r>    -7.5620     0.0000    80.0000 </r>
       <r>    -7.4901     0.0000    80.0000 </r>
       <r>    -7.4182     0.0000    80.0000 </r>
       <r>    -7.3463     0.0000    80.0000 </r>
       <r>    -7.2745     0.0000    80.0000 </r>
       <r>    -7.2026     0.0000    80.0000 </r>
       <r>    -7.1307     0.0000    80.0000 </r>
       <r>    -7.0588     0.0000    80.0000 </r>
       <r>    -6.9869     0.0000    80.0000 </r>
       <r>    -6.9150     0.0000    80.0000 </r>
       <r>    -6.8431     0.0000    80.0000 </r>
       <r>    -6.7712     0.0000    80.0000 </r>
       <r>    -6.6993     0.0000    80.0000 </r>
       <r>    -6.6274     0.0000    80.0000 </r>
       <r>    -6.5556     0.0000    80.0000 </r>
       <r>    -6.4837     0.0000    80.0000 </r>
       <r>    -6.4118     0.0000    80.0000 </r>
       <r>    -6.3399     0.0000    80.0000 </r>
       <r>    -6.2680     0.0000    80.0000 </r>
       <r>    -6.1961     0.0000    80.0000 </r>
       <r>    -6.1242     0.0000    80.0000 </r>
       <r>    -6.0523     0.0000    80.0000 </r>
       <r>    -5.9804     0.0000    80.0000 </r>
       <r>    -5.9086     0.0000    80.0000 </r>
       <r>    -5.8367     0.0000    80.0000 </r>
       <r>    -5.7648     0.0000    80.0000 </r>
       <r>    -5.6929     0.0000    80.0000 </r>
       <r>    -5.6210     0.0000    80.0000 </r>
       <r>    -5.5491     0.0000    80.0000 </r>
       <r>    -5.4772     0.0000    80.0000 </r>
       <r>    -5.4053     0.0000    80.0000 </r>
       <r>    -5.3334     0.0000    80.0000 </r>
       <r>    -5.2616     0.0000    80.0000 </r>
       <r>    -5.1897     0.0000    80.0000 </r>
       <r>    -5.1178     0.0000    80.0000 </r>
       <r>    -5.0459     0.0000    80.0000 </r>
       <r>    -4.9740     0.0000    80.0000 </r>
       <r>    -4.9021     0.0000    80.0000 </r>
       <r>    -4.8302     0.0000    80.0000 </r>
       <r>    -4.7583     0.0000    80.0000 </r>
       <r>    -4.6864     0.0000    80.0000 </r>
       <r>    -4.6146     0.0000    80.0000 </r>
       <r>    -4.5427     0.0000    80.0000 </r>
       <r>    -4.4708     0.0000    80.0000 </r>
       <r>    -4.3989     0.0000    80.0000 </r>
       <r>    -4.3270     0.0000    80.0000 </r>
       <r>    -4.2551     0.0000    80.0000 </r>
       <r>    -4.1832     0.0000    80.0000 </r>
       <r>    -4.1113     0.0000    80.0000 </r>
       <r>    -4.0394     0.0000    80.0000 </r>
       <r>    -3.9675     0.0000    80.0000 </r>
[...]
       <r>     0.2739     4.7162   100.4463 </r>
       <r>     0.3458    14.2862   101.4751 </r>
       <r>     0.4177    34.9104   103.9892 </r>
       <r>     0.4896    68.8762   108.9495 </r>
       <r>     0.5615   110.3074   116.8937 </r>
       <r>     0.6334   143.7858   127.2491 </r>
       <r>     0.7053   152.3816   138.2237 </r>
       <r>     0.7771   130.7167   147.6381 </r>
       <r>     0.8490    90.1801   154.1330 </r>
       <r>     0.9209    49.6873   157.7116 </r>
       <r>     0.9928    21.7251   159.2763 </r>
       <r>     1.0647     7.4984   159.8164 </r>
       <r>     1.1366     2.0346   159.9629 </r>
       <r>     1.2085     0.4327   159.9941 </r>
       <r>     1.2804     0.0720   159.9993 </r>
       <r>     1.3523     0.0093   159.9999 </r>
       <r>     1.4241     0.0009   160.0000 </r>
       <r>     1.4960     0.0001   160.0000 </r>
       <r>     1.5679     0.0000   160.0000 </r>
       <r>     1.6398     0.0000   160.0000 </r>
       <r>     1.7117     0.0000   160.0000 </r>
       <r>     1.7836     0.0000   160.0000 </r>
       <r>     1.8555     0.0000   160.0000 </r>
       <r>     1.9274     0.0000   160.0000 </r>
       <r>     1.9993     0.0000   160.0000 </r>
       <r>     2.0711     0.0000   160.0000 </r>
       <r>     2.1430     0.0000   160.0000 </r>
       <r>     2.2149     0.0000   160.0000 </r>
       <r>     2.2868     0.0000   160.0000 </r>
       <r>     2.3587     0.0000   160.0000 </r>
       <r>     2.4306     0.0000   160.0000 </r>
       <r>     2.5025     0.0000   160.0000 </r>
       <r>     2.5744     0.0000   160.0000 </r>
       <r>     2.6463     0.0000   160.0000 </r>
       <r>     2.7181     0.0000   160.0000 </r>
      </set>
     </set>
    </array>
   </total>
  </dos>
  <time name="totalsc">    2.23    2.39</time>
  <eigenvalues>
   <array>
    <dimension dim="1">band</dimension>
    <dimension dim="2">kpoint</dimension>
    <dimension dim="3">spin</dimension>
    <field>eigene</field>
    <field>occ</field>
    <set>
     <set comment="spin 1">
      <set comment="kpoint 1">
       <r>  -16.8470    1.0000 </r>
       <r>   -9.3533    1.0000 </r>
       <r>   -9.2410    1.0000 </r>
       <r>   -9.2068    1.0000 </r>
       <r>   -0.3093    0.0000 </r>
       <r>    0.5719    0.0000 </r>
       <r>    0.6717    0.0000 </r>
       <r>    0.7048    0.0000 </r>
      </set>
      <set comment="kpoint 2">
       <r>  -16.8469    1.0000 </r>
       <r>   -9.3533    1.0000 </r>
       <r>   -9.2409    1.0000 </r>
       <r>   -9.2069    1.0000 </r>
       <r>   -0.3162    0.0000 </r>
       <r>    0.5891    0.0000 </r>
       <r>    0.6876    0.0000 </r>
       <r>    0.7179    0.0000 </r>
      </set>
      <set comment="kpoint 3">
       <r>  -16.8470    1.0000 </r>
       <r>   -9.3534    1.0000 </r>
       <r>   -9.2410    1.0000 </r>
       <r>   -9.2069    1.0000 </r>
       <r>   -0.3181    0.0000 </r>
       <r>    0.5917    0.0000 </r>
       <r>    0.6886    0.0000 </r>
       <r>    0.7275    0.0000 </r>
      </set>
      <set comment="kpoint 4">
       <r>  -16.8470    1.0000 </r>
       <r>   -9.3534    1.0000 </r>
       <r>   -9.2411    1.0000 </r>
       <r>   -9.2068    1.0000 </r>
       <r>   -0.3166    0.0000 </r>
       <r>    0.5848    0.0000 </r>
       <r>    0.6853    0.0000 </r>
       <r>    0.7279    0.0000 </r>
      </set>
     </set>
    </set>
   </array>
  </eigenvalues>
  <separator name="orbital magnetization" >
   <v name="MAGDIPOLOUT">      0.00000000      0.00000000      0.00000000</v>
  </separator>
  <dos>
   <i name="efermi">     -8.27515358 </i>
   <total>
    <array>
     <dimension dim="1">gridpoints</dimension>
     <dimension dim="2">spin</dimension>
     <field>energy</field>
     <field>total</field>
     <field>integrated</field>
     <set>
      <set comment="spin 1">
       <r>   -18.8470     0.0000     0.0000 </r>
       <r>   -18.7751     0.0000     0.0000 </r>
       <r>   -18.7032     0.0000     0.0000 </r>
       <r>   -18.6312     0.0000     0.0000 </r>
       <r>   -18.5593     0.0000     0.0000 </r>
       <r>   -18.4874     0.0000     0.0000 </r>
       <r>   -18.4155     0.0000     0.0000 </r>
       <r>   -18.3436     0.0000     0.0000 </r>
       <r>   -18.2717     0.0000     0.0000 </r>
       <r>   -18.1998     0.0000     0.0000 </r>
       <r>   -18.1278     0.0000     0.0000 </r>
       <r>   -18.0559     0.0000     0.0000 </r>
       <r>   -17.9840     0.0000     0.0000 </r>
       <r>   -17.9121     0.0000     0.0000 </r>
       <r>   -17.8402     0.0000     0.0000 </r>
       <r>   -17.7683     0.0000     0.0000 </r>
       <r>   -17.6963     0.0000     0.0000 </r>
       <r>   -17.6244     0.0000     0.0000 </r>
       <r>   -17.5525     0.0000     0.0000 </r>
       <r>   -17.4806     0.0001     0.0000 </r>
       <r>   -17.4087     0.0009     0.0001 </r>
       <r>   -17.3368     0.0064     0.0005 </r>
       <r>   -17.2648     0.0361     0.0031 </r>
       <r>   -17.1929     0.1572     0.0144 </r>
       <r>   -17.1210     0.5315     0.0527 </r>
       <r>   -17.0491     1.3947     0.1530 </r>
       <r>   -16.9772     2.8406     0.3573 </r>
       <r>   -16.9053     4.4916     0.6803 </r>
       <r>   -16.8333     5.5141     1.0768 </r>
       <r>   -16.7614     5.2557     1.4548 </r>
       <r>   -16.6895     3.8893     1.7345 </r>
       <r>   -16.6176     2.2345     1.8952 </r>
       <r>   -16.5457     0.9966     1.9669 </r>
       <r>   -16.4738     0.3450     1.9917 </r>
       <r>   -16.4018     0.0927     1.9984 </r>
       <r>   -16.3299     0.0193     1.9997 </r>
       <r>   -16.2580     0.0031     2.0000 </r>
       <r>   -16.1861     0.0004     2.0000 </r>
       <r>   -16.1142     0.0000     2.0000 </r>
       <r>   -16.0423     0.0000     2.0000 </r>
       <r>   -15.9703     0.0000     2.0000 </r>
       <r>   -15.8984     0.0000     2.0000 </r>
       <r>   -15.8265     0.0000     2.0000 </r>
       <r>   -15.7546     0.0000     2.0000 </r>
       <r>   -15.6827     0.0000     2.0000 </r>
       <r>   -15.6108     0.0000     2.0000 </r>
       <r>   -15.5388     0.0000     2.0000 </r>
       <r>   -15.4669     0.0000     2.0000 </r>
       <r>   -15.3950     0.0000     2.0000 </r>
       <r>   -15.3231     0.0000     2.0000 </r>
       <r>   -15.2512     0.0000     2.0000 </r>
       <r>   -15.1793     0.0000     2.0000 </r>
       <r>   -15.1073     0.0000     2.0000 </r>
       <r>   -15.0354     0.0000     2.0000 </r>
       <r>   -14.9635     0.0000     2.0000 </r>
       <r>   -14.8916     0.0000     2.0000 </r>
       <r>   -14.8197     0.0000     2.0000 </r>
       <r>   -14.7478     0.0000     2.0000 </r>
       <r>   -14.6758     0.0000     2.0000 </r>
       <r>   -14.6039     0.0000     2.0000 </r>
       <r>   -14.5320     0.0000     2.0000 </r>
       <r>   -14.4601     0.0000     2.0000 </r>
       <r>   -14.3882     0.0000     2.0000 </r>
       <r>   -14.3163     0.0000     2.0000 </r>
       <r>   -14.2444     0.0000     2.0000 </r>
       <r>   -14.1724     0.0000     2.0000 </r>
       <r>   -14.1005     0.0000     2.0000 </r>
       <r>   -14.0286     0.0000     2.0000 </r>
       <r>   -13.9567     0.0000     2.0000 </r>
       <r>   -13.8848     0.0000     2.0000 </r>
       <r>   -13.8129     0.0000     2.0000 </r>
       <r>   -13.7409     0.0000     2.0000 </r>
       <r>   -13.6690     0.0000     2.0000 </r>
       <r>   -13.5971     0.0000     2.0000 </r>
       <r>   -13.5252     0.0000     2.0000 </r>
       <r>   -13.4533     0.0000     2.0000 </r>
       <r>   -13.3814     0.0000     2.0000 </r>
       <r>   -13.3094     0.0000     2.0000 </r>
       <r>   -13.2375     0.0000     2.0000 </r>
       <r>   -13.1656     0.0000     2.0000 </r>
       <r>   -13.0937     0.0000     2.0000 </r>
       <r>   -13.0218     0.0000     2.0000 </r>
       <r>   -12.9499     0.0000     2.0000 </r>
       <r>   -12.8779     0.0000     2.0000 </r>
       <r>   -12.8060     0.0000     2.0000 </r>
       <r>   -12.7341     0.0000     2.0000 </r>
       <r>   -12.6622     0.0000     2.0000 </r>
       <r>   -12.5903     0.0000     2.0000 </r>
       <r>   -12.5184     0.0000     2.0000 </r>
       <r>   -12.4464     0.0000     2.0000 </r>
       <r>   -12.3745     0.0000     2.0000 </r>
       <r>   -12.3026     0.0000     2.0000 </r>
       <r>   -12.2307     0.0000     2.0000 </r>
       <r>   -12.1588     0.0000     2.0000 </r>
       <r>   -12.0869     0.0000     2.0000 </r>
       <r>   -12.0149     0.0000     2.0000 </r>
       <r>   -11.9430     0.0000     2.0000 </r>
       <r>   -11.8711     0.0000     2.0000 </r>
       <r>   -11.7992     0.0000     2.0000 </r>
       <r>   -11.7273     0.0000     2.0000 </r>
       <r>   -11.6554     0.0000     2.0000 </r>
       <r>   -11.5834     0.0000     2.0000 </r>
       <r>   -11.5115     0.0000     2.0000 </r>
       <r>   -11.4396     0.0000     2.0000 </r>
       <r>   -11.3677     0.0000     2.0000 </r>
       <r>   -11.2958     0.0000     2.0000 </r>
       <r>   -11.2239     0.0000     2.0000 </r>
       <r>   -11.1519     0.0000     2.0000 </r>
       <r>   -11.0800     0.0000     2.0000 </r>
       <r>   -11.0081     0.0000     2.0000 </r>
       <r>   -10.9362     0.0000     2.0000 </r>
       <r>   -10.8643     0.0000     2.0000 </r>
       <r>   -10.7924     0.0000     2.0000 </r>
       <r>   -10.7205     0.0000     2.0000 </r>
       <r>   -10.6485     0.0000     2.0000 </r>
       <r>   -10.5766     0.0000     2.0000 </r>
       <r>   -10.5047     0.0000     2.0000 </r>
       <r>   -10.4328     0.0000     2.0000 </r>
       <r>   -10.3609     0.0000     2.0000 </r>
       <r>   -10.2890     0.0000     2.0000 </r>
       <r>   -10.2170     0.0000     2.0000 </r>
       <r>   -10.1451     0.0000     2.0000 </r>
       <r>   -10.0732     0.0000     2.0000 </r>
       <r>   -10.0013     0.0001     2.0000 </r>
       <r>    -9.9294     0.0006     2.0000 </r>
       <r>    -9.8575     0.0046     2.0004 </r>
       <r>    -9.7855     0.0281     2.0024 </r>
       <r>    -9.7136     0.1338     2.0120 </r>
       <r>    -9.6417     0.5027     2.0482 </r>
       <r>    -9.5698     1.5032     2.1563 </r>
       <r>    -9.4979     3.6082     2.4158 </r>
       <r>    -9.4260     7.0105     2.9199 </r>
       <r>    -9.3540    11.0998     3.7182 </r>
       <r>    -9.2821    14.3641     4.7512 </r>
       <r>    -9.2102    15.1661     5.8419 </r>
       <r>    -9.1383    12.9898     6.7761 </r>
       <r>    -9.0664     8.9543     7.4200 </r>
       <r>    -8.9945     4.9273     7.7744 </r>
       <r>    -8.9225     2.1491     7.9289 </r>
       <r>    -8.8506     0.7387     7.9821 </r>
       <r>    -8.7787     0.1993     7.9964 </r>
       <r>    -8.7068     0.0421     7.9994 </r>
       <r>    -8.6349     0.0069     7.9999 </r>
       <r>    -8.5630     0.0009     8.0000 </r>
       <r>    -8.4910     0.0001     8.0000 </r>
       <r>    -8.4191     0.0000     8.0000 </r>
       <r>    -8.3472     0.0000     8.0000 </r>
       <r>    -8.2753     0.0000     8.0000 </r>
       <r>    -8.2034     0.0000     8.0000 </r>
       <r>    -8.1315     0.0000     8.0000 </r>
       <r>    -8.0595     0.0000     8.0000 </r>
       <r>    -7.9876     0.0000     8.0000 </r>
       <r>    -7.9157     0.0000     8.0000 </r>
       <r>    -7.8438     0.0000     8.0000 </r>
       <r>    -7.7719     0.0000     8.0000 </r>
       <r>    -7.7000     0.0000     8.0000 </r>
       <r>    -7.6280     0.0000     8.0000 </r>
       <r>    -7.5561     0.0000     8.0000 </r>
       <r>    -7.4842     0.0000     8.0000 </r>
       <r>    -7.4123     0.0000     8.0000 </r>
       <r>    -7.3404     0.0000     8.0000 </r>
       <r>    -7.2685     0.0000     8.0000 </r>
       <r>    -7.1965     0.0000     8.0000 </r>
       <r>    -7.1246     0.0000     8.0000 </r>
       <r>    -7.0527     0.0000     8.0000 </r>
       <r>    -6.9808     0.0000     8.0000 </r>
       <r>    -6.9089     0.0000     8.0000 </r>
       <r>    -6.8370     0.0000     8.0000 </r>
       <r>    -6.7651     0.0000     8.0000 </r>
       <r>    -6.6931     0.0000     8.0000 </r>
       <r>    -6.6212     0.0000     8.0000 </r>
       <r>    -6.5493     0.0000     8.0000 </r>
       <r>    -6.4774     0.0000     8.0000 </r>
       <r>    -6.4055     0.0000     8.0000 </r>
       <r>    -6.3336     0.0000     8.0000 </r>
       <r>    -6.2616     0.0000     8.0000 </r>
       <r>    -6.1897     0.0000     8.0000 </r>
       <r>    -6.1178     0.0000     8.0000 </r>
       <r>    -6.0459     0.0000     8.0000 </r>
       <r>    -5.9740     0.0000     8.0000 </r>
       <r>    -5.9021     0.0000     8.0000 </r>
       <r>    -5.8301     0.0000     8.0000 </r>
       <r>    -5.7582     0.0000     8.0000 </r>
       <r>    -5.6863     0.0000     8.0000 </r>
       <r>    -5.6144     0.0000     8.0000 </r>
       <r>    -5.5425     0.0000     8.0000 </r>
       <r>    -5.4706     0.0000     8.0000 </r>
       <r>    -5.3986     0.0000     8.0000 </r>
       <r>    -5.3267     0.0000     8.0000 </r>
       <r>    -5.2548     0.0000     8.0000 </r>
       <r>    -5.1829     0.0000     8.0000 </r>
       <r>    -5.1110     0.0000     8.0000 </r>
       <r>    -5.0391     0.0000     8.0000 </r>
       <r>    -4.9671     0.0000     8.0000 </r>
       <r>    -4.8952     0.0000     8.0000 </r>
       <r>    -4.8233     0.0000     8.0000 </r>
       <r>    -4.7514     0.0000     8.0000 </r>
       <r>    -4.6795     0.0000     8.0000 </r>
       <r>    -4.6076     0.0000     8.0000 </r>
       <r>    -4.5356     0.0000     8.0000 </r>
       <r>    -4.4637     0.0000     8.0000 </r>
       <r>    -4.3918     0.0000     8.0000 </r>
       <r>    -4.3199     0.0000     8.0000 </r>
       <r>    -4.2480     0.0000     8.0000 </r>
       <r>    -4.1761     0.0000     8.0000 </r>
       <r>    -4.1041     0.0000     8.0000 </r>
       <r>    -4.0322     0.0000     8.0000 </r>
       <r>    -3.9603     0.0000     8.0000 </r>
       <r>    -3.8884     0.0000     8.0000 </r>
       <r>    -3.8165     0.0000     8.0000 </r>
       <r>    -3.7446     0.0000     8.0000 </r>
       <r>    -3.6726     0.0000     8.0000 </r>
       <r>    -3.6007     0.0000     8.0000 </r>
       <r>    -3.5288     0.0000     8.0000 </r>
       <r>    -3.4569     0.0000     8.0000 </r>
       <r>    -3.3850     0.0000     8.0000 </r>
       <r>    -3.3131     0.0000     8.0000 </r>
       <r>    -3.2411     0.0000     8.0000 </r>
       <r>    -3.1692     0.0000     8.0000 </r>
       <r>    -3.0973     0.0000     8.0000 </r>
       <r>    -3.0254     0.0000     8.0000 </r>
       <r>    -2.9535     0.0000     8.0000 </r>
       <r>    -2.8816     0.0000     8.0000 </r>
       <r>    -2.8097     0.0000     8.0000 </r>
       <r>    -2.7377     0.0000     8.0000 </r>
       <r>    -2.6658     0.0000     8.0000 </r>
       <r>    -2.5939     0.0000     8.0000 </r>
       <r>    -2.5220     0.0000     8.0000 </r>
       <r>    -2.4501     0.0000     8.0000 </r>
       <r>    -2.3782     0.0000     8.0000 </r>
       <r>    -2.3062     0.0000     8.0000 </r>
       <r>    -2.2343     0.0000     8.0000 </r>
       <r>    -2.1624     0.0000     8.0000 </r>
       <r>    -2.0905     0.0000     8.0000 </r>
       <r>    -2.0186     0.0000     8.0000 </r>
       <r>    -1.9467     0.0000     8.0000 </r>
       <r>    -1.8747     0.0000     8.0000 </r>
       <r>    -1.8028     0.0000     8.0000 </r>
       <r>    -1.7309     0.0000     8.0000 </r>
       <r>    -1.6590     0.0000     8.0000 </r>
       <r>    -1.5871     0.0000     8.0000 </r>
       <r>    -1.5152     0.0000     8.0000 </r>
       <r>    -1.4432     0.0000     8.0000 </r>
       <r>    -1.3713     0.0000     8.0000 </r>
       <r>    -1.2994     0.0000     8.0000 </r>
       <r>    -1.2275     0.0000     8.0000 </r>
       <r>    -1.1556     0.0000     8.0000 </r>
       <r>    -1.0837     0.0000     8.0000 </r>
       <r>    -1.0117     0.0000     8.0000 </r>
       <r>    -0.9398     0.0001     8.0000 </r>
       <r>    -0.8679     0.0012     8.0001 </r>
       <r>    -0.7960     0.0081     8.0007 </r>
       <r>    -0.7241     0.0440     8.0038 </r>
       <r>    -0.6522     0.1855     8.0172 </r>
       <r>    -0.5802     0.6073     8.0609 </r>
       <r>    -0.5083     1.5439     8.1719 </r>
       <r>    -0.4364     3.0469     8.3910 </r>
       <r>    -0.3645     4.6689     8.7268 </r>
       <r>    -0.2926     5.5554     9.1263 </r>
       <r>    -0.2207     5.1330     9.4954 </r>
       <r>    -0.1487     3.6827     9.7603 </r>
       <r>    -0.0768     2.0516     9.9078 </r>
       <r>    -0.0049     0.8878     9.9717 </r>
       <r>     0.0670     0.3014     9.9934 </r>
       <r>     0.1389     0.0992    10.0005 </r>
       <r>     0.2108     0.1229    10.0093 </r>
       <r>     0.2828     0.4251    10.0399 </r>
       <r>     0.3547     1.3244    10.1352 </r>
       <r>     0.4266     3.3182    10.3738 </r>
       <r>     0.4985     6.6915    10.8550 </r>
       <r>     0.5704    10.9097    11.6396 </r>
       <r>     0.6423    14.4116    12.6760 </r>
       <r>     0.7143    15.4107    13.7843 </r>
       <r>     0.7862    13.2912    14.7402 </r>
       <r>     0.8581     9.1960    15.4015 </r>
       <r>     0.9300     5.0740    15.7664 </r>
       <r>     1.0019     2.2202    15.9261 </r>
       <r>     1.0738     0.7668    15.9812 </r>
       <r>     1.1457     0.2082    15.9962 </r>
       <r>     1.2177     0.0443    15.9994 </r>
       <r>     1.2896     0.0074    15.9999 </r>
       <r>     1.3615     0.0010    16.0000 </r>
       <r>     1.4334     0.0001    16.0000 </r>
       <r>     1.5053     0.0000    16.0000 </r>
       <r>     1.5772     0.0000    16.0000 </r>
       <r>     1.6492     0.0000    16.0000 </r>
       <r>     1.7211     0.0000    16.0000 </r>
       <r>     1.7930     0.0000    16.0000 </r>
       <r>     1.8649     0.0000    16.0000 </r>
       <r>     1.9368     0.0000    16.0000 </r>
       <r>     2.0087     0.0000    16.0000 </r>
       <r>     2.0807     0.0000    16.0000 </r>
       <r>     2.1526     0.0000    16.0000 </r>
       <r>     2.2245     0.0000    16.0000 </r>
       <r>     2.2964     0.0000    16.0000 </r>
       <r>     2.3683     0.0000    16.0000 </r>
       <r>     2.4402     0.0000    16.0000 </r>
       <r>     2.5122     0.0000    16.0000 </r>
       <r>     2.5841     0.0000    16.0000 </r>
       <r>     2.6560     0.0000    16.0000 </r>
       <r>     2.7279     0.0000    16.0000 </r>
      </set>
     </set>
    </array>
   </total>
  </dos>
 </calculation>
 <structure name="finalpos" >
  <crystal>
   <varray name="basis" >
    <v>      10.13758642       0.00000000       0.00000000 </v>
    <v>      -0.22665336       9.96635133       0.00000000 </v>
    <v>      -0.13774475      -0.22298951       9.80412670 </v>
   </varray>
   <i name="volume">    990.55746955 </i>
   <varray name="rec_basis" >
    <v>       0.09864281       0.00224332       0.00143692 </v>
    <v>       0.00000000       0.10033762       0.00228212 </v>
    <v>       0.00000000       0.00000000       0.10199787 </v>
   </varray>
  </crystal>
  <varray name="positions" >
   <v>       0.53729085       0.40549321       0.35763997 </v>
   <v>       0.39758651       0.47853345       0.43782624 </v>
   <v>       0.55297547       0.56697240       0.44409053 </v>
   <v>       0.52871845       0.41661811       0.54162884 </v>
   <v>       0.50315403       0.46719513       0.44538009 </v>
  </varray>
  <varray name="velocities" >
   <v>      -0.00022380      -0.00004204      -0.00020722 </v>
   <v>       0.00007777      -0.00015420      -0.00006052 </v>
   <v>       0.00006449       0.00005426       0.00022244 </v>
   <v>      -0.00002812       0.00019146       0.00022031 </v>
   <v>       0.00000913      -0.00000412      -0.00001457 </v>
  </varray>
 </structure>
</modeling>
