unknown system                          
           1
    10.137586    0.000000    0.000000
    -0.226653    9.966351    0.000000
    -0.137745   -0.222990    9.804127
   H    C 
   4   1
Direct configuration=     1
   0.53821640  0.40679835  0.36049468
   0.39474579  0.47979817  0.43808212
   0.55204041  0.56550125  0.44268127
   0.52849619  0.41624360  0.53854428
   0.50340983  0.46713483  0.44549525
Direct configuration=     2
   0.53821000  0.40674165  0.36039184
   0.39486548  0.47976435  0.43808050
   0.55207388  0.56556257  0.44271080
   0.52851176  0.41622829  0.53865579
   0.50339632  0.46713854  0.44549221
Direct configuration=     3
   0.53819600  0.40663422  0.36019454
   0.39509509  0.47969786  0.43807620
   0.55213846  0.56567990  0.44276966
   0.52854096  0.41620146  0.53887000
   0.50337056  0.46714548  0.44548626
Direct configuration=     4
   0.53817082  0.40648551  0.35991734
   0.39541586  0.47960167  0.43806846
   0.55222953  0.56584337  0.44285693
   0.52858043  0.41616987  0.53917097
   0.50333508  0.46715489  0.44547766
Direct configuration=     5
   0.53812963  0.40630861  0.35958050
   0.39580164  0.47947995  0.43805625
   0.55234055  0.56603906  0.44297124
   0.52862552  0.41614278  0.53953652
   0.50329340  0.46716572  0.44546677
Direct configuration=     6
   0.53806708  0.40611875  0.35920782
   0.39622001  0.47933790  0.43803834
   0.55246369  0.56625059  0.44311076
   0.52867082  0.41613070  0.53994063
   0.50324975  0.46717674  0.44545403
Direct configuration=     7
   0.53797800  0.40593199  0.35882462
   0.39663491  0.47918147  0.43801344
   0.55259049  0.56646046  0.44327316
   0.52871066  0.41614432  0.54035559
   0.50320875  0.46718671  0.44543993
Direct configuration=     8
   0.53785797  0.40576381  0.35845573
   0.39700966  0.47901691  0.43798037
   0.55271243  0.56665151  0.44345570
   0.52873958  0.41619338  0.54075426
   0.50317498  0.46719442  0.44542501
Direct configuration=     9
   0.53770395  0.40562791  0.35812368
   0.39731022  0.47885041  0.43793825
   0.55282154  0.56680826  0.44365519
   0.52875281  0.41628575  0.54111204
   0.50315259  0.46719886  0.44540976
Direct configuration=    10
   0.53751465  0.40553525  0.35784719
   0.39750874  0.47868765  0.43788676
   0.55291098  0.56691814  0.44386809
   0.52874658  0.41642665  0.54140853
   0.50314490  0.46719925  0.44539466
