    5    5   50    1
  0.2000000E+03  0.1000000E-08  0.1000000E-08  0.1000000E-08  0.5000000E-15
  1.000000000000000E-004
  CAR 
 unknown system                          
      8      4      8
 
  0.2500000E+00  0.2500000E+00  0.2500000E+00  0.2500000E+00
    1      -16.880613   1.000000
    2       -9.285990   1.000000
    3       -9.285330   1.000000
    4       -9.284541   1.000000
    5       -0.314613   0.000000
    6        0.565500   0.000000
    7        0.671893   0.000000
    8        0.695923   0.000000
 
 -0.2500000E+00  0.2500000E+00  0.2500000E+00  0.2500000E+00
    1      -16.880603   1.000000
    2       -9.286094   1.000000
    3       -9.285371   1.000000
    4       -9.284513   1.000000
    5       -0.314663   0.000000
    6        0.561022   0.000000
    7        0.669309   0.000000
    8        0.698316   0.000000
 
  0.2500000E+00 -0.2500000E+00  0.2500000E+00  0.2500000E+00
    1      -16.880604   1.000000
    2       -9.286107   1.000000
    3       -9.285348   1.000000
    4       -9.284514   1.000000
    5       -0.314619   0.000000
    6        0.560754   0.000000
    7        0.671135   0.000000
    8        0.698015   0.000000
 
 -0.2500000E+00 -0.2500000E+00  0.2500000E+00  0.2500000E+00
    1      -16.880620   1.000000
    2       -9.286013   1.000000
    3       -9.285339   1.000000
    4       -9.284528   1.000000
    5       -0.314618   0.000000
    6        0.564743   0.000000
    7        0.672777   0.000000
    8        0.695128   0.000000
