   5   5   0   0
  0.1965296E+03  0.1000792E-08  0.9823653E-09  0.9997914E-09  0.5000000E-15
  1.000000000000000E-004
  CAR 
 unknown system                          
      2.71190404    -18.81306806  301     -8.19401176      1.00000000
    -18.813  0.0000E+00  0.0000E+00
    -18.741  0.0000E+00  0.0000E+00
    -18.670  0.0000E+00  0.0000E+00
    -18.598  0.0000E+00  0.0000E+00
    -18.526  0.0000E+00  0.0000E+00
    -18.454  0.0000E+00  0.0000E+00
    -18.383  0.0000E+00  0.0000E+00
    -18.311  0.0000E+00  0.0000E+00
    -18.239  0.0000E+00  0.0000E+00
    -18.167  0.0000E+00  0.0000E+00
    -18.096  0.0000E+00  0.0000E+00
    -18.024  0.0000E+00  0.0000E+00
    -17.952  0.1356E-13  0.9770E-15
    -17.880  0.7476E-12  0.5485E-13
    -17.809  0.3222E-10  0.2376E-11
    -17.737  0.1074E-08  0.7980E-10
    -17.665  0.2773E-07  0.2078E-08
    -17.593  0.5542E-06  0.4201E-07
    -17.522  0.8575E-05  0.6599E-06
    -17.450  0.1028E-03  0.8065E-05
    -17.378  0.9542E-03  0.7681E-04
    -17.306  0.6865E-02  0.5714E-03
    -17.235  0.3828E-01  0.3329E-02
    -17.163  0.1655E+00  0.1525E-01
    -17.091  0.5548E+00  0.5522E-01
    -17.019  0.1442E+01  0.1591E+00
    -16.948  0.2909E+01  0.3687E+00
    -16.876  0.4553E+01  0.6967E+00
    -16.804  0.5528E+01  0.1095E+01
    -16.732  0.5209E+01  0.1470E+01
    -16.661  0.3809E+01  0.1745E+01
    -16.589  0.2162E+01  0.1900E+01
    -16.517  0.9522E+00  0.1969E+01
    -16.445  0.3255E+00  0.1992E+01
    -16.374  0.8634E-01  0.1998E+01
    -16.302  0.1777E-01  0.2000E+01
    -16.230  0.2838E-02  0.2000E+01
    -16.158  0.3517E-03  0.2000E+01
    -16.087  0.3380E-04  0.2000E+01
    -16.015  0.2520E-05  0.2000E+01
    -15.943  0.1457E-06  0.2000E+01
    -15.871  0.6533E-08  0.2000E+01
    -15.800  0.2271E-09  0.2000E+01
    -15.728  0.6122E-11  0.2000E+01
    -15.656  0.1288E-12  0.2000E+01
    -15.584  0.1546E-14  0.2000E+01
    -15.513  0.0000E+00  0.2000E+01
    -15.441  0.0000E+00  0.2000E+01
    -15.369  0.0000E+00  0.2000E+01
    -15.297  0.0000E+00  0.2000E+01
    -15.226  0.0000E+00  0.2000E+01
    -15.154  0.0000E+00  0.2000E+01
    -15.082  0.0000E+00  0.2000E+01
    -15.010  0.0000E+00  0.2000E+01
    -14.939  0.0000E+00  0.2000E+01
    -14.867  0.0000E+00  0.2000E+01
    -14.795  0.0000E+00  0.2000E+01
    -14.723  0.0000E+00  0.2000E+01
    -14.652  0.0000E+00  0.2000E+01
    -14.580  0.0000E+00  0.2000E+01
    -14.508  0.0000E+00  0.2000E+01
    -14.436  0.0000E+00  0.2000E+01
    -14.365  0.0000E+00  0.2000E+01
    -14.293  0.0000E+00  0.2000E+01
    -14.221  0.0000E+00  0.2000E+01
    -14.149  0.0000E+00  0.2000E+01
    -14.078  0.0000E+00  0.2000E+01
    -14.006  0.0000E+00  0.2000E+01
    -13.934  0.0000E+00  0.2000E+01
    -13.862  0.0000E+00  0.2000E+01
    -13.791  0.0000E+00  0.2000E+01
    -13.719  0.0000E+00  0.2000E+01
    -13.647  0.0000E+00  0.2000E+01
    -13.575  0.0000E+00  0.2000E+01
    -13.504  0.0000E+00  0.2000E+01
    -13.432  0.0000E+00  0.2000E+01
    -13.360  0.0000E+00  0.2000E+01
    -13.288  0.0000E+00  0.2000E+01
    -13.217  0.0000E+00  0.2000E+01
    -13.145  0.0000E+00  0.2000E+01
    -13.073  0.0000E+00  0.2000E+01
    -13.001  0.0000E+00  0.2000E+01
    -12.930  0.0000E+00  0.2000E+01
    -12.858  0.0000E+00  0.2000E+01
    -12.786  0.0000E+00  0.2000E+01
    -12.714  0.0000E+00  0.2000E+01
    -12.643  0.0000E+00  0.2000E+01
    -12.571  0.0000E+00  0.2000E+01
    -12.499  0.0000E+00  0.2000E+01
    -12.427  0.0000E+00  0.2000E+01
    -12.356  0.0000E+00  0.2000E+01
    -12.284  0.0000E+00  0.2000E+01
    -12.212  0.0000E+00  0.2000E+01
    -12.140  0.0000E+00  0.2000E+01
    -12.069  0.0000E+00  0.2000E+01
    -11.997  0.0000E+00  0.2000E+01
    -11.925  0.0000E+00  0.2000E+01
    -11.853  0.0000E+00  0.2000E+01
    -11.782  0.0000E+00  0.2000E+01
    -11.710  0.0000E+00  0.2000E+01
    -11.638  0.0000E+00  0.2000E+01
    -11.566  0.0000E+00  0.2000E+01
    -11.495  0.0000E+00  0.2000E+01
    -11.423  0.0000E+00  0.2000E+01
    -11.351  0.0000E+00  0.2000E+01
    -11.279  0.0000E+00  0.2000E+01
    -11.208  0.0000E+00  0.2000E+01
    -11.136  0.0000E+00  0.2000E+01
    -11.064  0.0000E+00  0.2000E+01
    -10.992  0.0000E+00  0.2000E+01
    -10.921  0.0000E+00  0.2000E+01
    -10.849  0.0000E+00  0.2000E+01
    -10.777  0.0000E+00  0.2000E+01
    -10.705  0.0000E+00  0.2000E+01
    -10.634  0.0000E+00  0.2000E+01
    -10.562  0.0000E+00  0.2000E+01
    -10.490  0.3093E-15  0.2000E+01
    -10.418  0.4535E-13  0.2000E+01
    -10.347  0.2318E-11  0.2000E+01
    -10.275  0.9239E-10  0.2000E+01
    -10.203  0.2871E-08  0.2000E+01
    -10.131  0.6959E-07  0.2000E+01
    -10.060  0.1316E-05  0.2000E+01
     -9.988  0.1943E-04  0.2000E+01
     -9.916  0.2241E-03  0.2000E+01
     -9.844  0.2021E-02  0.2000E+01
     -9.773  0.1427E-01  0.2001E+01
     -9.701  0.7889E-01  0.2007E+01
     -9.629  0.3423E+00  0.2032E+01
     -9.557  0.1168E+01  0.2116E+01
     -9.486  0.3137E+01  0.2342E+01
     -9.414  0.6653E+01  0.2821E+01
     -9.342  0.1117E+02  0.3625E+01
     -9.270  0.1488E+02  0.4697E+01
     -9.199  0.1577E+02  0.5833E+01
     -9.127  0.1331E+02  0.6792E+01
     -9.055  0.8963E+01  0.7438E+01
     -8.983  0.4811E+01  0.7785E+01
     -8.912  0.2056E+01  0.7933E+01
     -8.840  0.6983E+00  0.7983E+01
     -8.768  0.1879E+00  0.7997E+01
     -8.696  0.3995E-01  0.7999E+01
     -8.625  0.6692E-02  0.8000E+01
     -8.553  0.8806E-03  0.8000E+01
     -8.481  0.9083E-04  0.8000E+01
     -8.409  0.7328E-05  0.8000E+01
     -8.338  0.4617E-06  0.8000E+01
     -8.266  0.2268E-07  0.8000E+01
     -8.194  0.8682E-09  0.8000E+01
     -8.122  0.2587E-10  0.8000E+01
     -8.051  0.5980E-12  0.8000E+01
     -7.979  0.1111E-13  0.8000E+01
     -7.907  0.0000E+00  0.8000E+01
     -7.835  0.0000E+00  0.8000E+01
     -7.764  0.0000E+00  0.8000E+01
     -7.692  0.0000E+00  0.8000E+01
     -7.620  0.0000E+00  0.8000E+01
     -7.548  0.0000E+00  0.8000E+01
     -7.477  0.0000E+00  0.8000E+01
     -7.405  0.0000E+00  0.8000E+01
     -7.333  0.0000E+00  0.8000E+01
     -7.261  0.0000E+00  0.8000E+01
     -7.190  0.0000E+00  0.8000E+01
     -7.118  0.0000E+00  0.8000E+01
     -7.046  0.0000E+00  0.8000E+01
     -6.974  0.0000E+00  0.8000E+01
     -6.903  0.0000E+00  0.8000E+01
     -6.831  0.0000E+00  0.8000E+01
     -6.759  0.0000E+00  0.8000E+01
     -6.687  0.0000E+00  0.8000E+01
     -6.616  0.0000E+00  0.8000E+01
     -6.544  0.0000E+00  0.8000E+01
     -6.472  0.0000E+00  0.8000E+01
     -6.400  0.0000E+00  0.8000E+01
     -6.329  0.0000E+00  0.8000E+01
     -6.257  0.0000E+00  0.8000E+01
     -6.185  0.0000E+00  0.8000E+01
     -6.113  0.0000E+00  0.8000E+01
     -6.042  0.0000E+00  0.8000E+01
     -5.970  0.0000E+00  0.8000E+01
     -5.898  0.0000E+00  0.8000E+01
     -5.826  0.0000E+00  0.8000E+01
     -5.755  0.0000E+00  0.8000E+01
     -5.683  0.0000E+00  0.8000E+01
     -5.611  0.0000E+00  0.8000E+01
     -5.539  0.0000E+00  0.8000E+01
     -5.468  0.0000E+00  0.8000E+01
     -5.396  0.0000E+00  0.8000E+01
     -5.324  0.0000E+00  0.8000E+01
     -5.252  0.0000E+00  0.8000E+01
     -5.181  0.0000E+00  0.8000E+01
     -5.109  0.0000E+00  0.8000E+01
     -5.037  0.0000E+00  0.8000E+01
     -4.965  0.0000E+00  0.8000E+01
     -4.894  0.0000E+00  0.8000E+01
     -4.822  0.0000E+00  0.8000E+01
     -4.750  0.0000E+00  0.8000E+01
     -4.678  0.0000E+00  0.8000E+01
     -4.607  0.0000E+00  0.8000E+01
     -4.535  0.0000E+00  0.8000E+01
     -4.463  0.0000E+00  0.8000E+01
     -4.391  0.0000E+00  0.8000E+01
     -4.320  0.0000E+00  0.8000E+01
     -4.248  0.0000E+00  0.8000E+01
     -4.176  0.0000E+00  0.8000E+01
     -4.104  0.0000E+00  0.8000E+01
     -4.033  0.0000E+00  0.8000E+01
     -3.961  0.0000E+00  0.8000E+01
     -3.889  0.0000E+00  0.8000E+01
     -3.817  0.0000E+00  0.8000E+01
     -3.746  0.0000E+00  0.8000E+01
     -3.674  0.0000E+00  0.8000E+01
     -3.602  0.0000E+00  0.8000E+01
     -3.530  0.0000E+00  0.8000E+01
     -3.459  0.0000E+00  0.8000E+01
     -3.387  0.0000E+00  0.8000E+01
     -3.315  0.0000E+00  0.8000E+01
     -3.243  0.0000E+00  0.8000E+01
     -3.172  0.0000E+00  0.8000E+01
     -3.100  0.0000E+00  0.8000E+01
     -3.028  0.0000E+00  0.8000E+01
     -2.956  0.0000E+00  0.8000E+01
     -2.885  0.0000E+00  0.8000E+01
     -2.813  0.0000E+00  0.8000E+01
     -2.741  0.0000E+00  0.8000E+01
     -2.669  0.0000E+00  0.8000E+01
     -2.598  0.0000E+00  0.8000E+01
     -2.526  0.0000E+00  0.8000E+01
     -2.454  0.0000E+00  0.8000E+01
     -2.382  0.0000E+00  0.8000E+01
     -2.311  0.0000E+00  0.8000E+01
     -2.239  0.0000E+00  0.8000E+01
     -2.167  0.0000E+00  0.8000E+01
     -2.095  0.0000E+00  0.8000E+01
     -2.024  0.0000E+00  0.8000E+01
     -1.952  0.0000E+00  0.8000E+01
     -1.880  0.0000E+00  0.8000E+01
     -1.808  0.0000E+00  0.8000E+01
     -1.737  0.0000E+00  0.8000E+01
     -1.665  0.0000E+00  0.8000E+01
     -1.593  0.0000E+00  0.8000E+01
     -1.521  0.0000E+00  0.8000E+01
     -1.450  0.1220E-13  0.8000E+01
     -1.378  0.6567E-12  0.8000E+01
     -1.306  0.2783E-10  0.8000E+01
     -1.234  0.9165E-09  0.8000E+01
     -1.163  0.2344E-07  0.8000E+01
     -1.091  0.4660E-06  0.8000E+01
     -1.019  0.7200E-05  0.8000E+01
     -0.947  0.8646E-04  0.8000E+01
     -0.876  0.8073E-03  0.8000E+01
     -0.804  0.5860E-02  0.8000E+01
     -0.732  0.3308E-01  0.8003E+01
     -0.660  0.1452E+00  0.8013E+01
     -0.589  0.4959E+00  0.8049E+01
     -0.517  0.1317E+01  0.8144E+01
     -0.445  0.2720E+01  0.8340E+01
     -0.373  0.4368E+01  0.8654E+01
     -0.302  0.5455E+01  0.9047E+01
     -0.230  0.5298E+01  0.9429E+01
     -0.158  0.4000E+01  0.9717E+01
     -0.086  0.2347E+01  0.9886E+01
     -0.015  0.1071E+01  0.9963E+01
      0.057  0.3826E+00  0.9991E+01
      0.129  0.1263E+00  0.1000E+02
      0.201  0.1307E+00  0.1001E+02
      0.272  0.4263E+00  0.1004E+02
      0.344  0.1313E+01  0.1013E+02
      0.416  0.3271E+01  0.1037E+02
      0.488  0.6583E+01  0.1084E+02
      0.559  0.1075E+02  0.1162E+02
      0.631  0.1427E+02  0.1265E+02
      0.703  0.1536E+02  0.1375E+02
      0.775  0.1336E+02  0.1472E+02
      0.846  0.9316E+01  0.1539E+02
      0.918  0.5179E+01  0.1576E+02
      0.990  0.2280E+01  0.1592E+02
      1.062  0.7911E+00  0.1598E+02
      1.133  0.2155E+00  0.1600E+02
      1.205  0.4595E-01  0.1600E+02
      1.277  0.7651E-02  0.1600E+02
      1.349  0.9935E-03  0.1600E+02
      1.420  0.1005E-03  0.1600E+02
      1.492  0.7907E-05  0.1600E+02
      1.564  0.4837E-06  0.1600E+02
      1.636  0.2300E-07  0.1600E+02
      1.707  0.8490E-09  0.1600E+02
      1.779  0.2433E-10  0.1600E+02
      1.851  0.5415E-12  0.1600E+02
      1.923  0.8397E-14  0.1600E+02
      1.994  0.0000E+00  0.1600E+02
      2.066  0.0000E+00  0.1600E+02
      2.138  0.0000E+00  0.1600E+02
      2.210  0.0000E+00  0.1600E+02
      2.281  0.0000E+00  0.1600E+02
      2.353  0.0000E+00  0.1600E+02
      2.425  0.0000E+00  0.1600E+02
      2.497  0.0000E+00  0.1600E+02
      2.568  0.0000E+00  0.1600E+02
      2.640  0.0000E+00  0.1600E+02
      2.712  0.0000E+00  0.1600E+02
      2.70269082    -18.80644702  301     -8.19520234      1.00000000
    -18.806  0.0000E+00  0.0000E+00
    -18.735  0.0000E+00  0.0000E+00
    -18.663  0.0000E+00  0.0000E+00
    -18.591  0.0000E+00  0.0000E+00
    -18.520  0.0000E+00  0.0000E+00
    -18.448  0.0000E+00  0.0000E+00
    -18.376  0.0000E+00  0.0000E+00
    -18.305  0.0000E+00  0.0000E+00
    -18.233  0.0000E+00  0.0000E+00
    -18.161  0.0000E+00  0.0000E+00
    -18.089  0.0000E+00  0.0000E+00
    -18.018  0.0000E+00  0.0000E+00
    -17.946  0.1084E-14  0.7772E-16
    -17.874  0.5884E-13  0.4297E-14
    -17.803  0.2531E-11  0.1857E-12
    -17.731  0.8447E-10  0.6242E-11
    -17.659  0.2188E-08  0.1631E-09
    -17.588  0.4398E-07  0.3316E-08
    -17.516  0.6862E-06  0.5251E-07
    -17.444  0.8313E-05  0.6485E-06
    -17.373  0.7821E-04  0.6256E-05
    -17.301  0.5715E-03  0.4723E-04
    -17.229  0.3245E-02  0.2799E-03
    -17.157  0.1432E-01  0.1306E-02
    -17.086  0.4909E-01  0.4826E-02
    -17.014  0.1309E+00  0.1421E-01
    -16.942  0.2712E+00  0.3365E-01
    -16.871  0.4369E+00  0.6497E-01
    -16.799  0.5473E+00  0.1042E+00
    -16.727  0.5331E+00  0.1424E+00
    -16.656  0.4038E+00  0.1714E+00
    -16.584  0.2378E+00  0.1884E+00
    -16.512  0.1089E+00  0.1963E+00
    -16.440  0.3877E-01  0.1990E+00
    -16.369  0.1073E-01  0.1998E+00
    -16.297  0.2307E-02  0.2000E+00
    -16.225  0.3855E-03  0.2000E+00
    -16.154  0.5004E-04  0.2000E+00
    -16.082  0.5046E-05  0.2000E+00
    -16.010  0.3951E-06  0.2000E+00
    -15.939  0.2402E-07  0.2000E+00
    -15.867  0.1133E-08  0.2000E+00
    -15.795  0.4151E-10  0.2000E+00
    -15.723  0.1179E-11  0.2000E+00
    -15.652  0.2594E-13  0.2000E+00
    -15.580  0.6194E-15  0.2000E+00
    -15.508  0.0000E+00  0.2000E+00
    -15.437  0.0000E+00  0.2000E+00
    -15.365  0.0000E+00  0.2000E+00
    -15.293  0.0000E+00  0.2000E+00
    -15.222  0.0000E+00  0.2000E+00
    -15.150  0.0000E+00  0.2000E+00
    -15.078  0.0000E+00  0.2000E+00
    -15.006  0.0000E+00  0.2000E+00
    -14.935  0.0000E+00  0.2000E+00
    -14.863  0.0000E+00  0.2000E+00
    -14.791  0.0000E+00  0.2000E+00
    -14.720  0.0000E+00  0.2000E+00
    -14.648  0.0000E+00  0.2000E+00
    -14.576  0.0000E+00  0.2000E+00
    -14.505  0.0000E+00  0.2000E+00
    -14.433  0.0000E+00  0.2000E+00
    -14.361  0.0000E+00  0.2000E+00
    -14.290  0.0000E+00  0.2000E+00
    -14.218  0.0000E+00  0.2000E+00
    -14.146  0.0000E+00  0.2000E+00
    -14.074  0.0000E+00  0.2000E+00
    -14.003  0.0000E+00  0.2000E+00
    -13.931  0.0000E+00  0.2000E+00
    -13.859  0.0000E+00  0.2000E+00
    -13.788  0.0000E+00  0.2000E+00
    -13.716  0.0000E+00  0.2000E+00
    -13.644  0.0000E+00  0.2000E+00
    -13.573  0.0000E+00  0.2000E+00
    -13.501  0.0000E+00  0.2000E+00
    -13.429  0.0000E+00  0.2000E+00
    -13.357  0.0000E+00  0.2000E+00
    -13.286  0.0000E+00  0.2000E+00
    -13.214  0.0000E+00  0.2000E+00
    -13.142  0.0000E+00  0.2000E+00
    -13.071  0.0000E+00  0.2000E+00
    -12.999  0.0000E+00  0.2000E+00
    -12.927  0.0000E+00  0.2000E+00
    -12.856  0.0000E+00  0.2000E+00
    -12.784  0.0000E+00  0.2000E+00
    -12.712  0.0000E+00  0.2000E+00
    -12.640  0.0000E+00  0.2000E+00
    -12.569  0.0000E+00  0.2000E+00
    -12.497  0.0000E+00  0.2000E+00
    -12.425  0.0000E+00  0.2000E+00
    -12.354  0.0000E+00  0.2000E+00
    -12.282  0.0000E+00  0.2000E+00
    -12.210  0.0000E+00  0.2000E+00
    -12.139  0.0000E+00  0.2000E+00
    -12.067  0.0000E+00  0.2000E+00
    -11.995  0.0000E+00  0.2000E+00
    -11.924  0.0000E+00  0.2000E+00
    -11.852  0.0000E+00  0.2000E+00
    -11.780  0.0000E+00  0.2000E+00
    -11.708  0.0000E+00  0.2000E+00
    -11.637  0.0000E+00  0.2000E+00
    -11.565  0.0000E+00  0.2000E+00
    -11.493  0.0000E+00  0.2000E+00
    -11.422  0.0000E+00  0.2000E+00
    -11.350  0.0000E+00  0.2000E+00
    -11.278  0.0000E+00  0.2000E+00
    -11.207  0.0000E+00  0.2000E+00
    -11.135  0.0000E+00  0.2000E+00
    -11.063  0.0000E+00  0.2000E+00
    -10.991  0.0000E+00  0.2000E+00
    -10.920  0.0000E+00  0.2000E+00
    -10.848  0.0000E+00  0.2000E+00
    -10.776  0.0000E+00  0.2000E+00
    -10.705  0.0000E+00  0.2000E+00
    -10.633  0.0000E+00  0.2000E+00
    -10.561  0.0000E+00  0.2000E+00
    -10.490  0.1548E-15  0.2000E+00
    -10.418  0.1154E-13  0.2000E+00
    -10.346  0.5533E-12  0.2000E+00
    -10.274  0.2064E-10  0.2000E+00
    -10.203  0.5986E-09  0.2000E+00
    -10.131  0.1350E-07  0.2000E+00
    -10.059  0.2370E-06  0.2000E+00
     -9.988  0.3242E-05  0.2000E+00
     -9.916  0.3460E-04  0.2000E+00
     -9.844  0.2887E-03  0.2000E+00
     -9.773  0.1887E-02  0.2002E+00
     -9.701  0.9688E-02  0.2009E+00
     -9.629  0.3920E-01  0.2037E+00
     -9.558  0.1256E+00  0.2127E+00
     -9.486  0.3200E+00  0.2356E+00
     -9.414  0.6523E+00  0.2824E+00
     -9.342  0.1070E+01  0.3591E+00
     -9.271  0.1419E+01  0.4608E+00
     -9.199  0.1528E+01  0.5704E+00
     -9.127  0.1336E+01  0.6661E+00
     -9.056  0.9474E+00  0.7341E+00
     -8.984  0.5430E+00  0.7730E+00
     -8.912  0.2501E+00  0.7909E+00
     -8.841  0.9205E-01  0.7975E+00
     -8.769  0.2692E-01  0.7995E+00
     -8.697  0.6227E-02  0.7999E+00
     -8.625  0.1134E-02  0.8000E+00
     -8.554  0.1622E-03  0.8000E+00
     -8.482  0.1815E-04  0.8000E+00
     -8.410  0.1587E-05  0.8000E+00
     -8.339  0.1082E-06  0.8000E+00
     -8.267  0.5749E-08  0.8000E+00
     -8.195  0.2376E-09  0.8000E+00
     -8.124  0.7637E-11  0.8000E+00
     -8.052  0.1909E-12  0.8000E+00
     -7.980  0.3716E-14  0.8000E+00
     -7.908  0.0000E+00  0.8000E+00
     -7.837  0.0000E+00  0.8000E+00
     -7.765  0.0000E+00  0.8000E+00
     -7.693  0.0000E+00  0.8000E+00
     -7.622  0.0000E+00  0.8000E+00
     -7.550  0.0000E+00  0.8000E+00
     -7.478  0.0000E+00  0.8000E+00
     -7.407  0.0000E+00  0.8000E+00
     -7.335  0.0000E+00  0.8000E+00
     -7.263  0.0000E+00  0.8000E+00
     -7.192  0.0000E+00  0.8000E+00
     -7.120  0.0000E+00  0.8000E+00
     -7.048  0.0000E+00  0.8000E+00
     -6.976  0.0000E+00  0.8000E+00
     -6.905  0.0000E+00  0.8000E+00
     -6.833  0.0000E+00  0.8000E+00
     -6.761  0.0000E+00  0.8000E+00
     -6.690  0.0000E+00  0.8000E+00
     -6.618  0.0000E+00  0.8000E+00
     -6.546  0.0000E+00  0.8000E+00
     -6.475  0.0000E+00  0.8000E+00
     -6.403  0.0000E+00  0.8000E+00
     -6.331  0.0000E+00  0.8000E+00
     -6.259  0.0000E+00  0.8000E+00
     -6.188  0.0000E+00  0.8000E+00
     -6.116  0.0000E+00  0.8000E+00
     -6.044  0.0000E+00  0.8000E+00
     -5.973  0.0000E+00  0.8000E+00
     -5.901  0.0000E+00  0.8000E+00
     -5.829  0.0000E+00  0.8000E+00
     -5.758  0.0000E+00  0.8000E+00
     -5.686  0.0000E+00  0.8000E+00
     -5.614  0.0000E+00  0.8000E+00
     -5.542  0.0000E+00  0.8000E+00
     -5.471  0.0000E+00  0.8000E+00
     -5.399  0.0000E+00  0.8000E+00
     -5.327  0.0000E+00  0.8000E+00
     -5.256  0.0000E+00  0.8000E+00
     -5.184  0.0000E+00  0.8000E+00
     -5.112  0.0000E+00  0.8000E+00
     -5.041  0.0000E+00  0.8000E+00
     -4.969  0.0000E+00  0.8000E+00
     -4.897  0.0000E+00  0.8000E+00
     -4.826  0.0000E+00  0.8000E+00
     -4.754  0.0000E+00  0.8000E+00
     -4.682  0.0000E+00  0.8000E+00
     -4.610  0.0000E+00  0.8000E+00
     -4.539  0.0000E+00  0.8000E+00
     -4.467  0.0000E+00  0.8000E+00
     -4.395  0.0000E+00  0.8000E+00
     -4.324  0.0000E+00  0.8000E+00
     -4.252  0.0000E+00  0.8000E+00
     -4.180  0.0000E+00  0.8000E+00
     -4.109  0.0000E+00  0.8000E+00
     -4.037  0.0000E+00  0.8000E+00
     -3.965  0.0000E+00  0.8000E+00
     -3.893  0.0000E+00  0.8000E+00
     -3.822  0.0000E+00  0.8000E+00
     -3.750  0.0000E+00  0.8000E+00
     -3.678  0.0000E+00  0.8000E+00
     -3.607  0.0000E+00  0.8000E+00
     -3.535  0.0000E+00  0.8000E+00
     -3.463  0.0000E+00  0.8000E+00
     -3.392  0.0000E+00  0.8000E+00
     -3.320  0.0000E+00  0.8000E+00
     -3.248  0.0000E+00  0.8000E+00
     -3.176  0.0000E+00  0.8000E+00
     -3.105  0.0000E+00  0.8000E+00
     -3.033  0.0000E+00  0.8000E+00
     -2.961  0.0000E+00  0.8000E+00
     -2.890  0.0000E+00  0.8000E+00
     -2.818  0.0000E+00  0.8000E+00
     -2.746  0.0000E+00  0.8000E+00
     -2.675  0.0000E+00  0.8000E+00
     -2.603  0.0000E+00  0.8000E+00
     -2.531  0.0000E+00  0.8000E+00
     -2.460  0.0000E+00  0.8000E+00
     -2.388  0.0000E+00  0.8000E+00
     -2.316  0.0000E+00  0.8000E+00
     -2.244  0.0000E+00  0.8000E+00
     -2.173  0.0000E+00  0.8000E+00
     -2.101  0.0000E+00  0.8000E+00
     -2.029  0.0000E+00  0.8000E+00
     -1.958  0.0000E+00  0.8000E+00
     -1.886  0.0000E+00  0.8000E+00
     -1.814  0.0000E+00  0.8000E+00
     -1.743  0.0000E+00  0.8000E+00
     -1.671  0.0000E+00  0.8000E+00
     -1.599  0.0000E+00  0.8000E+00
     -1.527  0.0000E+00  0.8000E+00
     -1.456  0.2710E-14  0.8000E+00
     -1.384  0.1373E-12  0.8000E+00
     -1.312  0.5588E-11  0.8000E+00
     -1.241  0.1763E-09  0.8000E+00
     -1.169  0.4316E-08  0.8000E+00
     -1.097  0.8203E-07  0.8000E+00
     -1.026  0.1210E-05  0.8000E+00
     -0.954  0.1387E-04  0.8000E+00
     -0.882  0.1234E-03  0.8000E+00
     -0.810  0.8531E-03  0.8001E+00
     -0.739  0.4583E-02  0.8004E+00
     -0.667  0.1913E-01  0.8018E+00
     -0.595  0.6209E-01  0.8062E+00
     -0.524  0.1566E+00  0.8175E+00
     -0.452  0.3073E+00  0.8395E+00
     -0.380  0.4686E+00  0.8731E+00
     -0.309  0.5559E+00  0.9129E+00
     -0.237  0.5127E+00  0.9497E+00
     -0.165  0.3678E+00  0.9761E+00
     -0.093  0.2051E+00  0.9908E+00
     -0.022  0.8900E-01  0.9972E+00
      0.050  0.3035E-01  0.9993E+00
      0.122  0.1008E-01  0.1000E+01
      0.193  0.1259E-01  0.1001E+01
      0.265  0.4325E-01  0.1004E+01
      0.337  0.1341E+00  0.1014E+01
      0.408  0.3348E+00  0.1038E+01
      0.480  0.6740E+00  0.1086E+01
      0.552  0.1098E+01  0.1165E+01
      0.623  0.1449E+01  0.1269E+01
      0.695  0.1547E+01  0.1380E+01
      0.767  0.1332E+01  0.1475E+01
      0.839  0.9182E+00  0.1541E+01
      0.910  0.5044E+00  0.1577E+01
      0.982  0.2196E+00  0.1593E+01
      1.054  0.7543E-01  0.1598E+01
      1.125  0.2036E-01  0.1600E+01
      1.197  0.4310E-02  0.1600E+01
      1.269  0.7136E-03  0.1600E+01
      1.340  0.9230E-04  0.1600E+01
      1.412  0.9314E-05  0.1600E+01
      1.484  0.7327E-06  0.1600E+01
      1.556  0.4490E-07  0.1600E+01
      1.627  0.2142E-08  0.1600E+01
      1.699  0.7952E-10  0.1600E+01
      1.771  0.2296E-11  0.1600E+01
      1.842  0.5149E-13  0.1600E+01
      1.914  0.8517E-15  0.1600E+01
      1.986  0.0000E+00  0.1600E+01
      2.057  0.0000E+00  0.1600E+01
      2.129  0.0000E+00  0.1600E+01
      2.201  0.0000E+00  0.1600E+01
      2.273  0.0000E+00  0.1600E+01
      2.344  0.0000E+00  0.1600E+01
      2.416  0.0000E+00  0.1600E+01
      2.488  0.0000E+00  0.1600E+01
      2.559  0.0000E+00  0.1600E+01
      2.631  0.0000E+00  0.1600E+01
      2.703  0.0000E+00  0.1600E+01
