    5    5   10    1
  0.1965296E+03  0.1000792E-08  0.9823653E-09  0.9997914E-09  0.5000000E-15
  1.000000000000000E-004
  CAR 
 unknown system                          
      8      4      8
 
  0.2500000E+00  0.2500000E+00  0.2500000E+00  0.2500000E+00
    1      -16.806447   1.000000
    2       -9.319962   1.000000
    3       -9.245807   1.000000
    4       -9.169980   1.000000
    5       -0.332197   0.000000
    6        0.569025   0.000000
    7        0.665219   0.000000
    8        0.701261   0.000000
 
 -0.2500000E+00  0.2500000E+00  0.2500000E+00  0.2500000E+00
    1      -16.806368   1.000000
    2       -9.320049   1.000000
    3       -9.245789   1.000000
    4       -9.169924   1.000000
    5       -0.335812   0.000000
    6        0.580088   0.000000
    7        0.669577   0.000000
    8        0.702691   0.000000
 
  0.2500000E+00 -0.2500000E+00  0.2500000E+00  0.2500000E+00
    1      -16.806402   1.000000
    2       -9.320030   1.000000
    3       -9.245851   1.000000
    4       -9.169945   1.000000
    5       -0.329354   0.000000
    6        0.557324   0.000000
    7        0.662278   0.000000
    8        0.690760   0.000000
 
 -0.2500000E+00 -0.2500000E+00  0.2500000E+00  0.2500000E+00
    1      -16.806394   1.000000
    2       -9.319901   1.000000
    3       -9.245722   1.000000
    4       -9.169920   1.000000
    5       -0.329137   0.000000
    6        0.557576   0.000000
    7        0.666334   0.000000
    8        0.690633   0.000000
