 running on   16 total cores
 distrk:  each k-point on   16 cores,    1 groups
 distr:  one band on    4 cores,    4 groups
 using from now: INCAR     
 vasp.5.4.4.18Apr17-6-g9f103f2a35 (build Nov 25 2021 15:25:00) complex          
  
 POSCAR found type information on POSCAR  H  C 
 POSCAR found :  2 types and       5 ions
 scaLAPACK will be used
 LDA part: xc-table for Pade appr. of Perdew
 POSCAR found type information on POSCAR  H  C 
 POSCAR found :  2 types and       5 ions
 generate k-points for:    2    2    2
 POSCAR, INCAR and KPOINTS ok, starting setup
 FFT: planning ...
 WAVECAR not read
 prediction of wavefunctions initialized - no I/O
 entering main loop
       N       E                     dE             d eps       ncg     rms          rms(c)
DAV:   1     0.213159459389E+02    0.21316E+02   -0.19516E+03    88   0.423E+02
DAV:   2    -0.211759967912E+02   -0.42492E+02   -0.38574E+02    80   0.107E+02
DAV:   3    -0.273098082242E+02   -0.61338E+01   -0.61338E+01    64   0.451E+01
DAV:   4    -0.276700960670E+02   -0.36029E+00   -0.36029E+00   112   0.114E+01
DAV:   5    -0.276782748710E+02   -0.81788E-02   -0.81788E-02   104   0.107E+00    0.889E+00
RMM:   6    -0.246720287838E+02    0.30062E+01   -0.56428E+00    64   0.146E+01    0.437E+00
RMM:   7    -0.241582388586E+02    0.51379E+00   -0.13232E+00    64   0.666E+00    0.231E+00
RMM:   8    -0.240103256258E+02    0.14791E+00   -0.16238E-01    64   0.290E+00    0.225E-01
RMM:   9    -0.240045532602E+02    0.57724E-02   -0.11345E-02    64   0.706E-01    0.198E-01
RMM:  10    -0.239985625863E+02    0.59907E-02   -0.24501E-02    64   0.857E-01    0.285E-01
RMM:  11    -0.239989782874E+02   -0.41570E-03   -0.67493E-03    64   0.518E-01    0.640E-02
RMM:  12    -0.240090681000E+02   -0.10090E-01   -0.46624E-03    64   0.424E-01    0.134E-01
RMM:  13    -0.240094081612E+02   -0.34006E-03   -0.81879E-04    64   0.162E-01    0.642E-02
RMM:  14    -0.240122328361E+02   -0.28247E-02   -0.21810E-03    64   0.288E-01    0.466E-02
RMM:  15    -0.240124438686E+02   -0.21103E-03   -0.19031E-04    64   0.834E-02    0.135E-02
RMM:  16    -0.240126494412E+02   -0.20557E-03   -0.12392E-04    64   0.709E-02    0.125E-02
RMM:  17    -0.240126682037E+02   -0.18763E-04   -0.30731E-05    64   0.317E-02    0.191E-03
RMM:  18    -0.240126846192E+02   -0.16415E-04   -0.10697E-06    48   0.902E-03    0.644E-04
RMM:  19    -0.240126872639E+02   -0.26447E-05   -0.37294E-07    48   0.535E-03    0.715E-04
RMM:  20    -0.240126886889E+02   -0.14251E-05   -0.75820E-08    44   0.232E-03    0.302E-04
RMM:  21    -0.240126888893E+02   -0.20032E-06   -0.18548E-08    36   0.136E-03
    1 T=     1. E= -.24012332E+02 F= -.24012689E+02 E0= -.24012689E+02  EK= 0.35672E-03 SP= 0.00E+00 SK= 0.00E+00
 bond charge predicted
       N       E                     dE             d eps       ncg     rms          rms(c)
DAV:   1    -0.240154258614E+02   -0.27372E-02   -0.32365E-03    72   0.526E-01    0.293E-02
RMM:   2    -0.240154104585E+02    0.15403E-04   -0.81393E-05    64   0.741E-02    0.155E-02
RMM:   3    -0.240154083990E+02    0.20595E-05   -0.34541E-05    64   0.376E-02    0.516E-03
RMM:   4    -0.240154081020E+02    0.29706E-06   -0.85298E-07    48   0.790E-03
    2 T=     6. E= -.24012395E+02 F= -.24015408E+02 E0= -.24015408E+02  EK= 0.30135E-02 SP= 0.00E+00 SK= 0.00E+00
 bond charge predicted
 prediction of wavefunctions
       N       E                     dE             d eps       ncg     rms          rms(c)
DAV:   1    -0.240198725293E+02   -0.44641E-02   -0.24946E-03    96   0.480E-01    0.877E-03
RMM:   2    -0.240198776649E+02   -0.51356E-05   -0.65767E-05    64   0.772E-02    0.386E-03
RMM:   3    -0.240198780319E+02   -0.36704E-06   -0.30202E-06    52   0.153E-02    0.278E-03
RMM:   4    -0.240198784235E+02   -0.39164E-06   -0.68231E-07    48   0.799E-03
    3 T=    14. E= -.24012492E+02 F= -.24019878E+02 E0= -.24019878E+02  EK= 0.73863E-02 SP= 0.00E+00 SK= 0.00E+00
 bond charge predicted
 prediction of wavefunctions
       N       E                     dE             d eps       ncg     rms          rms(c)
DAV:   1    -0.240245612996E+02   -0.46833E-02   -0.77913E-04    64   0.229E-01    0.142E-02
RMM:   2    -0.240245563273E+02    0.49722E-05   -0.37952E-05    64   0.528E-02    0.733E-03
RMM:   3    -0.240245562869E+02    0.40419E-07   -0.21799E-05    64   0.276E-02    0.255E-03
RMM:   4    -0.240245561875E+02    0.99430E-07   -0.81245E-07    48   0.684E-03
    4 T=    23. E= -.24012585E+02 F= -.24024556E+02 E0= -.24024556E+02  EK= 0.11971E-01 SP= 0.00E+00 SK= 0.00E+00
 bond charge predicted
 prediction of wavefunctions
       N       E                     dE             d eps       ncg     rms          rms(c)
DAV:   1    -0.240278764990E+02   -0.33202E-02   -0.96517E-04    64   0.263E-01    0.237E-03
RMM:   2    -0.240278794727E+02   -0.29737E-05   -0.81786E-06    64   0.214E-02    0.125E-03
RMM:   3    -0.240278810100E+02   -0.15373E-05   -0.39345E-07    48   0.505E-03    0.990E-04
RMM:   4    -0.240278842086E+02   -0.31986E-05   -0.18166E-07    48   0.272E-03    0.328E-04
RMM:   5    -0.240278864404E+02   -0.22318E-05   -0.13901E-07    44   0.213E-03    0.478E-04
RMM:   6    -0.240278881980E+02   -0.17576E-05   -0.16032E-07    44   0.251E-03    0.450E-04
RMM:   7    -0.240278893455E+02   -0.11475E-05   -0.27488E-08    36   0.159E-03    0.241E-04
RMM:   8    -0.240278901232E+02   -0.77767E-06   -0.10782E-07    44   0.201E-03
    5 T=    29. E= -.24012643E+02 F= -.24027890E+02 E0= -.24027890E+02  EK= 0.15247E-01 SP= 0.00E+00 SK= 0.00E+00
 bond charge predicted
 prediction of wavefunctions
       N       E                     dE             d eps       ncg     rms          rms(c)
DAV:   1    -0.240288549897E+02   -0.96564E-03   -0.11396E-03    64   0.285E-01    0.660E-03
RMM:   2    -0.240288566199E+02   -0.16302E-05   -0.12030E-05    64   0.342E-02    0.455E-03
RMM:   3    -0.240288587253E+02   -0.21054E-05   -0.60457E-06    62   0.148E-02    0.115E-03
RMM:   4    -0.240288592954E+02   -0.57010E-06   -0.22070E-07    48   0.375E-03
    6 T=    31. E= -.24012650E+02 F= -.24028859E+02 E0= -.24028859E+02  EK= 0.16209E-01 SP= 0.00E+00 SK= 0.00E+00
 bond charge predicted
 prediction of wavefunctions
       N       E                     dE             d eps       ncg     rms          rms(c)
DAV:   1    -0.240272740250E+02    0.15847E-02   -0.11258E-03    64   0.280E-01    0.216E-03
RMM:   2    -0.240272756576E+02   -0.16326E-05   -0.69251E-06    64   0.261E-02    0.179E-03
RMM:   3    -0.240272765350E+02   -0.87737E-06   -0.34429E-07    48   0.479E-03    0.886E-04
RMM:   4    -0.240272777330E+02   -0.11980E-05   -0.29673E-07    48   0.395E-03    0.318E-04
RMM:   5    -0.240272794276E+02   -0.16946E-05   -0.12304E-07    48   0.234E-03    0.393E-04
RMM:   6    -0.240272801811E+02   -0.75354E-06   -0.12928E-07    44   0.197E-03
    7 T=    28. E= -.24012611E+02 F= -.24027280E+02 E0= -.24027280E+02  EK= 0.14669E-01 SP= 0.00E+00 SK= 0.00E+00
 bond charge predicted
 prediction of wavefunctions
       N       E                     dE             d eps       ncg     rms          rms(c)
DAV:   1    -0.240237548986E+02    0.35245E-02   -0.90528E-04    64   0.247E-01    0.595E-03
RMM:   2    -0.240237564880E+02   -0.15895E-05   -0.88285E-06    64   0.267E-02    0.268E-03
RMM:   3    -0.240237589532E+02   -0.24651E-05   -0.23454E-06    52   0.101E-02    0.702E-04
RMM:   4    -0.240237600724E+02   -0.11192E-05   -0.20103E-07    48   0.410E-03    0.416E-04
RMM:   5    -0.240237618501E+02   -0.17777E-05   -0.74377E-08    48   0.193E-03    0.293E-04
RMM:   6    -0.240237631249E+02   -0.12748E-05   -0.70781E-08    40   0.170E-03    0.212E-04
RMM:   7    -0.240237633715E+02   -0.24666E-06   -0.33418E-08    36   0.160E-03
    8 T=    22. E= -.24012533E+02 F= -.24023763E+02 E0= -.24023763E+02  EK= 0.11230E-01 SP= 0.00E+00 SK= 0.00E+00
 bond charge predicted
 prediction of wavefunctions
       N       E                     dE             d eps       ncg     rms          rms(c)
DAV:   1    -0.240194723726E+02    0.42908E-02   -0.60968E-04    64   0.202E-01    0.238E-03
RMM:   2    -0.240194748192E+02   -0.24466E-05   -0.78036E-06    64   0.285E-02    0.262E-03
RMM:   3    -0.240194752342E+02   -0.41501E-06   -0.19103E-07    48   0.416E-03    0.229E-03
RMM:   4    -0.240194782324E+02   -0.29982E-05   -0.14333E-06    48   0.761E-03    0.480E-04
RMM:   5    -0.240194784517E+02   -0.21932E-06   -0.14288E-07    48   0.355E-03
    9 T=    14. E= -.24012443E+02 F= -.24019478E+02 E0= -.24019478E+02  EK= 0.70355E-02 SP= 0.00E+00 SK= 0.00E+00
 bond charge predicted
 prediction of wavefunctions
       N       E                     dE             d eps       ncg     rms          rms(c)
DAV:   1    -0.240157627815E+02    0.37155E-02   -0.28668E-04    88   0.144E-01    0.258E-03
RMM:   2    -0.240157653006E+02   -0.25191E-05   -0.37267E-06    58   0.202E-02    0.129E-03
RMM:   3    -0.240157673563E+02   -0.20557E-05   -0.23732E-07    48   0.448E-03    0.719E-04
RMM:   4    -0.240157699285E+02   -0.25723E-05   -0.69510E-08    46   0.256E-03    0.216E-04
RMM:   5    -0.240157720067E+02   -0.20782E-05   -0.16788E-08    36   0.161E-03    0.982E-05
RMM:   6    -0.240157732629E+02   -0.12562E-05   -0.72012E-08    42   0.168E-03    0.699E-05
RMM:   7    -0.240157739410E+02   -0.67807E-06    0.00000E+00    32   0.132E-03
   10 T=     7. E= -.24012375E+02 F= -.24015774E+02 E0= -.24015774E+02  EK= 0.33991E-02 SP= 0.00E+00 SK= 0.00E+00
 bond charge predicted
 prediction of wavefunctions
 wavefunctions rotated
