<?xml version="1.0" encoding="ISO-8859-1"?>
<modeling>
 <generator>
  <i name="program" type="string">vasp </i>
  <i name="version" type="string">5.4.4.18Apr17-6-g9f103f2a35  </i>
  <i name="subversion" type="string">(build Nov 25 2021 15:25:00) complex            parallel </i>
  <i name="platform" type="string">LinuxIFC </i>
  <i name="date" type="string">2022 02 21 </i>
  <i name="time" type="string">10:18:14 </i>
 </generator>
 <incar>
  <i type="string" name="PREC">a</i>
  <i type="string" name="ALGO">Fast</i>
  <i type="int" name="NELM">   120</i>
  <i type="int" name="NELMIN">     4</i>
  <i type="int" name="IBRION">     0</i>
  <i name="EDIFF">      0.00000100</i>
  <i type="int" name="NSW">    10</i>
  <i type="int" name="ISIF">     2</i>
  <i type="int" name="ISYM">     0</i>
  <i name="ENCUT">    400.00000000</i>
  <i name="POTIM">      0.50000000</i>
  <i type="logical" name="LREAL"> F  </i>
  <i type="int" name="ISMEAR">     0</i>
  <i name="SIGMA">      0.20000000</i>
  <i name="KSPACING">      0.50000000</i>
  <i type="logical" name="KGAMMA"> F  </i>
  <i name="PSTRESS">      0.00000000</i>
  <i type="logical" name="LWAVE"> F  </i>
  <i type="logical" name="LCHARG"> F  </i>
  <v type="int" name="KPOINT_BSE">    -1     0     0     0</v>
  <i type="int" name="NELM">   120</i>
 </incar>
 <structure name="primitive_cell" >
  <crystal>
   <varray name="basis" >
    <v>      10.00791867       0.00000000       0.00000000 </v>
    <v>      -0.06894756       9.82341097       0.00000000 </v>
    <v>      -0.08173225       0.21777780       9.99520785 </v>
   </varray>
   <i name="volume">    982.64785621 </i>
   <varray name="rec_basis" >
    <v>       0.09992088       0.00070131       0.00080179 </v>
    <v>       0.00000000       0.10179763      -0.00221799 </v>
    <v>       0.00000000       0.00000000       0.10004794 </v>
   </varray>
  </crystal>
  <varray name="positions" >
   <v>      -0.46169143       0.40685010       0.36065067 </v>
   <v>      -0.49636480       0.46738210       0.44513300 </v>
   <v>      -0.44794427      -0.43495187       0.44246563 </v>
   <v>      -0.47164931       0.41672301      -0.46082973 </v>
   <v>       0.39528035       0.47988880       0.43816187 </v>
  </varray>
 </structure>
 <varray name="primitive_index" >
  <v type="int" >        1 </v>
  <v type="int" >        5 </v>
  <v type="int" >        3 </v>
  <v type="int" >        4 </v>
  <v type="int" >        2 </v>
 </varray>
 <kpoints>
  <generation param="Monkhorst-Pack">
   <v type="int" name="divisions">       2        2        2 </v>
   <v name="usershift">      0.00000000       0.00000000       0.00000000 </v>
   <v name="genvec1">      0.50000000      -0.00000000      -0.00000000 </v>
   <v name="genvec2">      0.00000000       0.50000000       0.00000000 </v>
   <v name="genvec3">      0.00000000       0.00000000       0.50000000 </v>
   <v name="shift">      0.50000000       0.50000000       0.50000000 </v>
  </generation>
  <varray name="kpointlist" >
   <v>       0.25000000       0.25000000       0.25000000 </v>
   <v>      -0.25000000       0.25000000       0.25000000 </v>
   <v>       0.25000000      -0.25000000       0.25000000 </v>
   <v>      -0.25000000      -0.25000000       0.25000000 </v>
  </varray>
  <varray name="weights" >
   <v>       0.25000000 </v>
   <v>       0.25000000 </v>
   <v>       0.25000000 </v>
   <v>       0.25000000 </v>
  </varray>
 </kpoints>
 <parameters>
  <separator name="general" >
   <i type="string" name="SYSTEM">unknown system</i>
   <i type="logical" name="LCOMPAT"> F  </i>
  </separator>
  <separator name="electronic" >
   <i type="string" name="PREC">a</i>
   <i name="ENMAX">    400.00000000</i>
   <i name="ENAUG">    644.87300000</i>
   <i name="EDIFF">      0.00000100</i>
   <i type="int" name="IALGO">    68</i>
   <i type="int" name="IWAVPR">    12</i>
   <i type="int" name="NBANDS">     8</i>
   <i name="NELECT">      8.00000000</i>
   <i type="int" name="TURBO">     0</i>
   <i type="int" name="IRESTART">     0</i>
   <i type="int" name="NREBOOT">     0</i>
   <i type="int" name="NMIN">     0</i>
   <i name="EREF">      0.00000000</i>
   <separator name="electronic smearing" >
    <i type="int" name="ISMEAR">     0</i>
    <i name="SIGMA">      0.20000000</i>
    <i name="KSPACING">      0.50000000</i>
    <i type="logical" name="KGAMMA"> F  </i>
   </separator>
   <separator name="electronic projectors" >
    <i type="logical" name="LREAL"> F  </i>
    <v name="ROPT">      0.00000000      0.00000000</v>
    <i type="int" name="LMAXPAW">  -100</i>
    <i type="int" name="LMAXMIX">     2</i>
    <i type="logical" name="NLSPLINE"> F  </i>
   </separator>
   <separator name="electronic startup" >
    <i type="int" name="ISTART">     0</i>
    <i type="int" name="ICHARG">     2</i>
    <i type="int" name="INIWAV">     1</i>
   </separator>
   <separator name="electronic spin" >
    <i type="int" name="ISPIN">     1</i>
    <i type="logical" name="LNONCOLLINEAR"> F  </i>
    <v name="MAGMOM">      1.00000000      1.00000000      1.00000000      1.00000000      1.00000000</v>
    <i name="NUPDOWN">     -1.00000000</i>
    <i type="logical" name="LSORBIT"> F  </i>
    <v name="SAXIS">      0.00000000      0.00000000      1.00000000</v>
    <i type="logical" name="LSPIRAL"> F  </i>
    <v name="QSPIRAL">      0.00000000      0.00000000      0.00000000</v>
    <i type="logical" name="LZEROZ"> F  </i>
   </separator>
   <separator name="electronic exchange-correlation" >
    <i type="logical" name="LASPH"> F  </i>
    <i type="logical" name="LMETAGGA"> F  </i>
   </separator>
   <separator name="electronic convergence" >
    <i type="int" name="NELM">   120</i>
    <i type="int" name="NELMDL">    -5</i>
    <i type="int" name="NELMIN">     4</i>
    <i name="ENINI">    400.00000000</i>
    <separator name="electronic convergence detail" >
     <i type="logical" name="LDIAG"> T  </i>
     <i type="logical" name="LSUBROT"> F  </i>
     <i name="WEIMIN">      0.00100000</i>
     <i name="EBREAK">      0.00000003</i>
     <i name="DEPER">      0.30000000</i>
     <i type="int" name="NRMM">     4</i>
     <i name="TIME">      0.40000000</i>
    </separator>
   </separator>
   <separator name="electronic mixer" >
    <i name="AMIX">      0.40000000</i>
    <i name="BMIX">      1.00000000</i>
    <i name="AMIN">      0.10000000</i>
    <i name="AMIX_MAG">      1.60000000</i>
    <i name="BMIX_MAG">      1.00000000</i>
    <separator name="electronic mixer details" >
     <i type="int" name="IMIX">     4</i>
     <i type="logical" name="MIXFIRST"> F  </i>
     <i type="int" name="MAXMIX">   -45</i>
     <i name="WC">    100.00000000</i>
     <i type="int" name="INIMIX">     1</i>
     <i type="int" name="MIXPRE">     1</i>
     <i type="int" name="MREMOVE">     5</i>
    </separator>
   </separator>
   <separator name="electronic dipolcorrection" >
    <i type="logical" name="LDIPOL"> F  </i>
    <i type="logical" name="LMONO"> F  </i>
    <i type="int" name="IDIPOL">     0</i>
    <i name="EPSILON">      1.00000000</i>
    <v name="DIPOL">   -100.00000000   -100.00000000   -100.00000000</v>
    <i name="EFIELD">      0.00000000</i>
   </separator>
  </separator>
  <separator name="grids" >
   <i type="int" name="NGX">    70</i>
   <i type="int" name="NGY">    64</i>
   <i type="int" name="NGZ">    70</i>
   <i type="int" name="NGXF">   140</i>
   <i type="int" name="NGYF">   128</i>
   <i type="int" name="NGZF">   140</i>
   <i type="logical" name="ADDGRID"> F  </i>
  </separator>
  <separator name="ionic" >
   <i type="int" name="NSW">    10</i>
   <i type="int" name="IBRION">     0</i>
   <i type="int" name="MDALGO">     0</i>
   <i type="int" name="ISIF">     2</i>
   <i name="PSTRESS">      0.00000000</i>
   <i name="EDIFFG">      0.00001000</i>
   <i type="int" name="NFREE">     0</i>
   <i name="POTIM">      0.50000000</i>
   <i name="SMASS">     -3.00000000</i>
   <i name="SCALEE">      1.00000000</i>
  </separator>
  <separator name="ionic md" >
   <i name="TEBEG">      0.00010000</i>
   <i name="TEEND">      0.00010000</i>
   <i type="int" name="NBLOCK">     1</i>
   <i type="int" name="KBLOCK">    10</i>
   <i type="int" name="NPACO">   256</i>
   <i name="APACO">     16.00000000</i>
  </separator>
  <separator name="symmetry" >
   <i type="int" name="ISYM">     0</i>
   <i name="SYMPREC">      0.00001000</i>
  </separator>
  <separator name="dos" >
   <i type="int" name="LORBIT">     0</i>
   <v name="RWIGS">     -1.00000000     -1.00000000</v>
   <i type="int" name="NEDOS">   301</i>
   <i name="EMIN">     10.00000000</i>
   <i name="EMAX">    -10.00000000</i>
   <i name="EFERMI">      0.00000000</i>
  </separator>
  <separator name="writing" >
   <i type="int" name="NWRITE">     2</i>
   <i type="logical" name="LWAVE"> F  </i>
   <i type="logical" name="LDOWNSAMPLE"> F  </i>
   <i type="logical" name="LCHARG"> F  </i>
   <i type="logical" name="LPARD"> F  </i>
   <i type="logical" name="LVTOT"> F  </i>
   <i type="logical" name="LVHAR"> F  </i>
   <i type="logical" name="LELF"> F  </i>
   <i type="logical" name="LOPTICS"> F  </i>
   <v name="STM">      0.00000000      0.00000000      0.00000000      0.00000000      0.00000000      0.00000000      0.00000000</v>
  </separator>
  <separator name="performance" >
   <i type="int" name="NPAR">     4</i>
   <i type="int" name="NSIM">     4</i>
   <i type="int" name="NBLK">    -1</i>
   <i type="logical" name="LPLANE"> T  </i>
   <i type="logical" name="LSCALAPACK"> T  </i>
   <i type="logical" name="LSCAAWARE"> F  </i>
   <i type="logical" name="LSCALU"> F  </i>
   <i type="logical" name="LASYNC"> F  </i>
   <i type="logical" name="LORBITALREAL"> F  </i>
  </separator>
  <separator name="miscellaneous" >
   <i type="int" name="IDIOT">     3</i>
   <i type="int" name="ISPECIAL">     0</i>
   <i type="logical" name="LMUSIC"> F  </i>
   <v name="POMASS">      1.00000000     12.01100000</v>
   <v name="DARWINR">      0.00000000      0.00000000</v>
   <v name="DARWINV">      1.00000000      1.00000000</v>
   <i type="logical" name="LCORR"> T  </i>
  </separator>
  <i type="logical" name="GGA_COMPAT"> T  </i>
  <i type="logical" name="LBERRY"> F  </i>
  <i type="int" name="ICORELEVEL">     0</i>
  <i type="logical" name="LDAU"> F  </i>
  <i type="int" name="I_CONSTRAINED_M">     0</i>
  <separator name="electronic exchange-correlation" >
   <i type="string" name="GGA">--</i>
   <i type="int" name="VOSKOWN">     0</i>
   <i type="logical" name="LHFCALC"> F  </i>
   <i type="string" name="PRECFOCK"></i>
   <i type="logical" name="LSYMGRAD"> F  </i>
   <i type="logical" name="LHFONE"> F  </i>
   <i type="logical" name="LRHFCALC"> F  </i>
   <i type="logical" name="LTHOMAS"> F  </i>
   <i type="logical" name="LMODELHF"> F  </i>
   <i name="ENCUT4O">     -1.00000000</i>
   <i type="int" name="EXXOEP">     0</i>
   <i type="int" name="FOURORBIT">     0</i>
   <i name="AEXX">      0.00000000</i>
   <i name="HFALPHA">      0.00000000</i>
   <i name="MCALPHA">      0.00000000</i>
   <i name="ALDAX">      1.00000000</i>
   <i name="AGGAX">      1.00000000</i>
   <i name="ALDAC">      1.00000000</i>
   <i name="AGGAC">      1.00000000</i>
   <i type="int" name="NKREDX">     1</i>
   <i type="int" name="NKREDY">     1</i>
   <i type="int" name="NKREDZ">     1</i>
   <i type="logical" name="SHIFTRED"> F  </i>
   <i type="logical" name="ODDONLY"> F  </i>
   <i type="logical" name="EVENONLY"> F  </i>
   <i type="int" name="LMAXFOCK">     0</i>
   <i type="int" name="NMAXFOCKAE">     0</i>
   <i type="logical" name="LFOCKAEDFT"> F  </i>
   <i name="HFSCREEN">      0.00000000</i>
   <i name="HFSCREENC">      0.00000000</i>
   <i type="int" name="NBANDSGWLOW">     0</i>
  </separator>
  <separator name="vdW DFT" >
   <i type="logical" name="LUSE_VDW"> F  </i>
   <i name="Zab_VDW">     -0.84910000</i>
   <i name="PARAM1">      0.12340000</i>
   <i name="PARAM2">      1.00000000</i>
   <i name="PARAM3">      0.00000000</i>
  </separator>
  <separator name="model GW" >
   <i type="int" name="MODEL_GW">     0</i>
   <i name="MODEL_EPS0">    117.91774275</i>
   <i name="MODEL_ALPHA">      1.00000000</i>
  </separator>
  <separator name="linear response parameters" >
   <i type="logical" name="LEPSILON"> F  </i>
   <i type="logical" name="LRPA"> F  </i>
   <i type="logical" name="LNABLA"> F  </i>
   <i type="logical" name="LVEL"> F  </i>
   <i type="int" name="KINTER">     0</i>
   <i name="CSHIFT">      0.10000000</i>
   <i name="OMEGAMAX">     -1.00000000</i>
   <i name="DEG_THRESHOLD">      0.00200000</i>
   <i name="RTIME">     -0.10000000</i>
   <i name="WPLASMAI">      0.00000000</i>
   <v name="DFIELD">      0.00000000      0.00000000      0.00000000</v>
   <v name="WPLASMA">      0.00000000      0.00000000      0.00000000      0.00000000      0.00000000      0.00000000      0.00000000      0.00000000      0.00000000</v>
  </separator>
  <separator name="orbital magnetization" >
   <i type="logical" name="NUCIND"> F  </i>
   <v name="MAGPOS">      0.00000000      0.00000000      0.00000000</v>
   <i type="logical" name="LNICSALL"> T  </i>
   <i type="logical" name="ORBITALMAG"> F  </i>
   <i type="logical" name="LMAGBLOCH"> F  </i>
   <i type="logical" name="LCHIMAG"> F  </i>
   <i type="logical" name="LGAUGE"> T  </i>
   <i type="int" name="MAGATOM">     0</i>
   <v name="MAGDIPOL">      0.00000000      0.00000000      0.00000000</v>
   <v name="AVECCONST">      0.00000000      0.00000000      0.00000000</v>
  </separator>
  <separator name="response functions" >
   <i type="logical" name="LADDER"> F  </i>
   <i type="logical" name="LRPAFORCE"> F  </i>
   <i type="logical" name="LFXC"> F  </i>
   <i type="logical" name="LHARTREE"> T  </i>
   <i type="int" name="IBSE">     0</i>
   <v type="int" name="KPOINT">    -1     0     0     0</v>
   <i type="logical" name="LTCTE"> F  </i>
   <i type="logical" name="LTETE"> F  </i>
   <i type="logical" name="LTRIPLET"> F  </i>
   <i type="logical" name="LFXCEPS"> F  </i>
   <i type="logical" name="LFXHEG"> F  </i>
   <i type="int" name="NATURALO">     2</i>
   <i type="logical" name="L2ORDER"> F  </i>
   <i type="logical" name="LMP2LT"> F  </i>
   <i type="logical" name="LUSEW"> F  </i>
   <i name="ENCUTGW">     -2.00000000</i>
   <i name="ENCUTGWSOFT">     -2.00000000</i>
   <i name="ENCUTLF">     -1.00000000</i>
   <i type="int" name="LMAXMP2">    -1</i>
   <i name="SCISSOR">      0.00000000</i>
   <i type="int" name="NOMEGA">     0</i>
   <i type="int" name="NOMEGAR">     0</i>
   <i type="int" name="NBANDSGW">    -1</i>
   <i type="int" name="NBANDSO">    -1</i>
   <i type="int" name="NBANDSV">    -1</i>
   <i type="int" name="NELM">   120</i>
   <i type="int" name="NELMHF">     1</i>
   <i type="int" name="DIM">     3</i>
   <i type="int" name="ANTIRES">     0</i>
   <i name="OMEGAMAX">    -30.00000000</i>
   <i name="OMEGAMIN">    -30.00000000</i>
   <i name="OMEGATL">   -200.00000000</i>
   <i type="int" name="OMEGAGRID">   140</i>
   <i name="CSHIFT">     -0.10000000</i>
   <i type="logical" name="SELFENERGY"> F  </i>
   <i type="logical" name="LSPECTRAL"> F  </i>
   <i type="logical" name="LSPECTRALGW"> F  </i>
   <i type="logical" name="LSINGLES"> F  </i>
   <i type="logical" name="LFERMIGW"> F  </i>
   <i type="logical" name="ODDONLYGW"> F  </i>
   <i type="logical" name="EVENONLYGW"> F  </i>
   <i type="int" name="NKREDLFX">     1</i>
   <i type="int" name="NKREDLFY">     1</i>
   <i type="int" name="NKREDLFZ">     1</i>
   <i type="int" name="MAXMEM">  2800</i>
   <i type="int" name="TELESCOPE">     0</i>
   <i type="int" name="TAUPAR">     1</i>
   <i type="int" name="OMEGAPAR">    -1</i>
   <i name="LAMBDA">      1.00000000</i>
  </separator>
  <separator name="External order field" >
   <i name="OFIELD_KAPPA">      0.00000000</i>
   <v name="OFIELD_K">      0.00000000      0.00000000      0.00000000</v>
   <i name="OFIELD_Q6_NEAR">      0.00000000</i>
   <i name="OFIELD_Q6_FAR">      0.00000000</i>
   <i name="OFIELD_A">      0.00000000</i>
  </separator>
 </parameters>
 <atominfo>
  <atoms>       5 </atoms>
  <types>       2 </types>
  <array name="atoms" >
   <dimension dim="1">ion</dimension>
   <field type="string">element</field>
   <field type="int">atomtype</field>
   <set>
    <rc><c>H </c><c>   1</c></rc>
    <rc><c>H </c><c>   1</c></rc>
    <rc><c>H </c><c>   1</c></rc>
    <rc><c>H </c><c>   1</c></rc>
    <rc><c>C </c><c>   2</c></rc>
   </set>
  </array>
  <array name="atomtypes" >
   <dimension dim="1">type</dimension>
   <field type="int">atomspertype</field>
   <field type="string">element</field>
   <field>mass</field>
   <field>valence</field>
   <field type="string">pseudopotential</field>
   <set>
    <rc><c>   4</c><c>H </c><c>      1.00000000</c><c>      1.00000000</c><c>  PAW_PBE H 15Jun2001                   </c></rc>
    <rc><c>   1</c><c>C </c><c>     12.01100000</c><c>      4.00000000</c><c>  PAW_PBE C 08Apr2002                   </c></rc>
   </set>
  </array>
 </atominfo>
 <structure name="initialpos" >
  <crystal>
   <varray name="basis" >
    <v>      10.00791867       0.00000000       0.00000000 </v>
    <v>      -0.06894756       9.82341097       0.00000000 </v>
    <v>      -0.08173225       0.21777780       9.99520785 </v>
   </varray>
   <i name="volume">    982.64785621 </i>
   <varray name="rec_basis" >
    <v>       0.09992088       0.00070131       0.00080179 </v>
    <v>       0.00000000       0.10179763      -0.00221799 </v>
    <v>       0.00000000       0.00000000       0.10004794 </v>
   </varray>
  </crystal>
  <varray name="positions" >
   <v>       0.53830857       0.40685010       0.36065067 </v>
   <v>       0.39528035       0.47988880       0.43816187 </v>
   <v>       0.55205573       0.56504813       0.44246563 </v>
   <v>       0.52835069       0.41672301       0.53917027 </v>
   <v>       0.50363520       0.46738210       0.44513300 </v>
  </varray>
  <varray name="velocities" >
   <v>       0.00000014      -0.00000037      -0.00000078 </v>
   <v>       0.00000008       0.00000028       0.00000023 </v>
   <v>       0.00000021       0.00000017       0.00000048 </v>
   <v>      -0.00000097      -0.00000054       0.00000015 </v>
   <v>       0.00000005       0.00000004      -0.00000001 </v>
  </varray>
 </structure>
 <calculation>
  <scstep>
   <time name="dav">    0.17    0.20</time>
   <time name="total">    0.36    0.40</time>
   <energy>
    <i name="alphaZ">      0.24652859 </i>
    <i name="ewald">    130.18252280 </i>
    <i name="hartreedc">   -244.39080475 </i>
    <i name="XCdc">     22.06199477 </i>
    <i name="pawpsdc">    117.05815612 </i>
    <i name="pawaedc">   -117.66307307 </i>
    <i name="eentropy">     -0.06525138 </i>
    <i name="bandstr">    -83.15588168 </i>
    <i name="atom">    197.04175453 </i>
    <i name="e_fr_energy">     21.31594594 </i>
    <i name="e_wo_entrp">     21.38119732 </i>
    <i name="e_0_energy">     21.34857163 </i>
   </energy>
  </scstep>
  <scstep>
   <time name="dav">    0.16    0.16</time>
   <time name="total">    0.16    0.16</time>
   <energy>
    <i name="e_fr_energy">    -21.17599679 </i>
    <i name="e_wo_entrp">    -21.17599679 </i>
    <i name="e_0_energy">    -21.17599679 </i>
   </energy>
  </scstep>
  <scstep>
   <time name="dav">    0.14    0.14</time>
   <time name="total">    0.14    0.14</time>
   <energy>
    <i name="e_fr_energy">    -27.30980822 </i>
    <i name="e_wo_entrp">    -27.30980822 </i>
    <i name="e_0_energy">    -27.30980822 </i>
   </energy>
  </scstep>
  <scstep>
   <time name="dav">    0.21    0.22</time>
   <time name="total">    0.21    0.22</time>
   <energy>
    <i name="e_fr_energy">    -27.67009607 </i>
    <i name="e_wo_entrp">    -27.67009607 </i>
    <i name="e_0_energy">    -27.67009607 </i>
   </energy>
  </scstep>
  <scstep>
   <time name="dav">    0.19    0.20</time>
   <time name="total">    0.22    0.22</time>
   <energy>
    <i name="e_fr_energy">    -27.67827487 </i>
    <i name="e_wo_entrp">    -27.67827487 </i>
    <i name="e_0_energy">    -27.67827487 </i>
   </energy>
  </scstep>
  <scstep>
   <time name="diag">    0.04    0.05</time>
   <time name="diis">    0.14    0.14</time>
   <time name="orth">    0.00    0.00</time>
   <time name="total">    0.33    0.34</time>
   <energy>
    <i name="e_fr_energy">    -24.67202878 </i>
    <i name="e_wo_entrp">    -24.67202878 </i>
    <i name="e_0_energy">    -24.67202878 </i>
   </energy>
  </scstep>
  <scstep>
   <time name="diag">    0.04    0.04</time>
   <time name="diis">    0.14    0.14</time>
   <time name="orth">    0.00    0.00</time>
   <time name="total">    0.32    0.33</time>
   <energy>
    <i name="e_fr_energy">    -24.15823886 </i>
    <i name="e_wo_entrp">    -24.15823886 </i>
    <i name="e_0_energy">    -24.15823886 </i>
   </energy>
  </scstep>
  <scstep>
   <time name="diag">    0.04    0.04</time>
   <time name="diis">    0.14    0.14</time>
   <time name="orth">    0.00    0.00</time>
   <time name="total">    0.32    0.33</time>
   <energy>
    <i name="e_fr_energy">    -24.01032563 </i>
    <i name="e_wo_entrp">    -24.01032563 </i>
    <i name="e_0_energy">    -24.01032563 </i>
   </energy>
  </scstep>
  <scstep>
   <time name="diag">    0.03    0.04</time>
   <time name="diis">    0.14    0.15</time>
   <time name="orth">    0.00    0.00</time>
   <time name="total">    0.32    0.33</time>
   <energy>
    <i name="e_fr_energy">    -24.00455326 </i>
    <i name="e_wo_entrp">    -24.00455326 </i>
    <i name="e_0_energy">    -24.00455326 </i>
   </energy>
  </scstep>
  <scstep>
   <time name="diag">    0.03    0.04</time>
   <time name="diis">    0.14    0.14</time>
   <time name="orth">    0.00    0.00</time>
   <time name="total">    0.32    0.33</time>
   <energy>
    <i name="e_fr_energy">    -23.99856259 </i>
    <i name="e_wo_entrp">    -23.99856259 </i>
    <i name="e_0_energy">    -23.99856259 </i>
   </energy>
  </scstep>
  <scstep>
   <time name="diag">    0.03    0.04</time>
   <time name="diis">    0.14    0.14</time>
   <time name="orth">    0.00    0.00</time>
   <time name="total">    0.32    0.33</time>
   <energy>
    <i name="e_fr_energy">    -23.99897829 </i>
    <i name="e_wo_entrp">    -23.99897829 </i>
    <i name="e_0_energy">    -23.99897829 </i>
   </energy>
  </scstep>
  <scstep>
   <time name="diag">    0.04    0.04</time>
   <time name="diis">    0.14    0.15</time>
   <time name="orth">    0.00    0.00</time>
   <time name="total">    0.31    0.32</time>
   <energy>
    <i name="e_fr_energy">    -24.00906810 </i>
    <i name="e_wo_entrp">    -24.00906810 </i>
    <i name="e_0_energy">    -24.00906810 </i>
   </energy>
  </scstep>
  <scstep>
   <time name="diag">    0.04    0.04</time>
   <time name="diis">    0.14    0.14</time>
   <time name="orth">    0.00    0.00</time>
   <time name="total">    0.30    0.32</time>
   <energy>
    <i name="e_fr_energy">    -24.00940816 </i>
    <i name="e_wo_entrp">    -24.00940816 </i>
    <i name="e_0_energy">    -24.00940816 </i>
   </energy>
  </scstep>
  <scstep>
   <time name="diag">    0.03    0.04</time>
   <time name="diis">    0.14    0.14</time>
   <time name="orth">    0.00    0.00</time>
   <time name="total">    0.31    0.32</time>
   <energy>
    <i name="e_fr_energy">    -24.01223284 </i>
    <i name="e_wo_entrp">    -24.01223284 </i>
    <i name="e_0_energy">    -24.01223284 </i>
   </energy>
  </scstep>
  <scstep>
   <time name="diag">    0.03    0.03</time>
   <time name="diis">    0.13    0.14</time>
   <time name="orth">    0.00    0.00</time>
   <time name="total">    0.30    0.31</time>
   <energy>
    <i name="e_fr_energy">    -24.01244387 </i>
    <i name="e_wo_entrp">    -24.01244387 </i>
    <i name="e_0_energy">    -24.01244387 </i>
   </energy>
  </scstep>
  <scstep>
   <time name="diag">    0.03    0.04</time>
   <time name="diis">    0.14    0.14</time>
   <time name="orth">    0.00    0.00</time>
   <time name="total">    0.30    0.31</time>
   <energy>
    <i name="e_fr_energy">    -24.01264944 </i>
    <i name="e_wo_entrp">    -24.01264944 </i>
    <i name="e_0_energy">    -24.01264944 </i>
   </energy>
  </scstep>
  <scstep>
   <time name="diag">    0.04    0.04</time>
   <time name="diis">    0.14    0.14</time>
   <time name="orth">    0.00    0.00</time>
   <time name="total">    0.31    0.32</time>
   <energy>
    <i name="e_fr_energy">    -24.01266820 </i>
    <i name="e_wo_entrp">    -24.01266820 </i>
    <i name="e_0_energy">    -24.01266820 </i>
   </energy>
  </scstep>
  <scstep>
   <time name="diag">    0.04    0.04</time>
   <time name="diis">    0.11    0.12</time>
   <time name="orth">    0.00    0.00</time>
   <time name="total">    0.29    0.30</time>
   <energy>
    <i name="e_fr_energy">    -24.01268462 </i>
    <i name="e_wo_entrp">    -24.01268462 </i>
    <i name="e_0_energy">    -24.01268462 </i>
   </energy>
  </scstep>
  <scstep>
   <time name="diag">    0.03    0.04</time>
   <time name="diis">    0.11    0.11</time>
   <time name="orth">    0.00    0.00</time>
   <time name="total">    0.28    0.29</time>
   <energy>
    <i name="e_fr_energy">    -24.01268726 </i>
    <i name="e_wo_entrp">    -24.01268726 </i>
    <i name="e_0_energy">    -24.01268726 </i>
   </energy>
  </scstep>
  <scstep>
   <time name="diag">    0.03    0.03</time>
   <time name="diis">    0.11    0.12</time>
   <time name="orth">    0.00    0.00</time>
   <time name="total">    0.29    0.29</time>
   <energy>
    <i name="e_fr_energy">    -24.01268869 </i>
    <i name="e_wo_entrp">    -24.01268869 </i>
    <i name="e_0_energy">    -24.01268869 </i>
   </energy>
  </scstep>
  <scstep>
   <time name="diag">    0.04    0.04</time>
   <time name="diis">    0.11    0.11</time>
   <time name="orth">    0.00    0.00</time>
   <time name="total">    0.26    0.27</time>
   <energy>
    <i name="alphaZ">      0.24652859 </i>
    <i name="ewald">    130.18252280 </i>
    <i name="hartreedc">   -285.71201308 </i>
    <i name="XCdc">     24.84416823 </i>
    <i name="pawpsdc">    480.53724488 </i>
    <i name="pawaedc">   -481.33259871 </i>
    <i name="eentropy">     -0.00000000 </i>
    <i name="bandstr">    -89.82029614 </i>
    <i name="atom">    197.04175453 </i>
    <i name="e_fr_energy">    -24.01268889 </i>
    <i name="e_wo_entrp">    -24.01268889 </i>
    <i name="e_0_energy">    -24.01268889 </i>
   </energy>
  </scstep>
  <structure>
   <crystal>
    <varray name="basis" >
     <v>      10.00791867       0.00000000       0.00000000 </v>
     <v>      -0.06894756       9.82341097       0.00000000 </v>
     <v>      -0.08173225       0.21777780       9.99520785 </v>
    </varray>
    <i name="volume">    982.64785621 </i>
    <varray name="rec_basis" >
     <v>       0.09992088       0.00070131       0.00080179 </v>
     <v>       0.00000000       0.10179763      -0.00221799 </v>
     <v>       0.00000000       0.00000000       0.10004794 </v>
    </varray>
   </crystal>
   <varray name="positions" >
    <v>       0.53830857       0.40685010       0.36065067 </v>
    <v>       0.39528035       0.47988880       0.43816187 </v>
    <v>       0.55205573       0.56504813       0.44246563 </v>
    <v>       0.52835069       0.41672301       0.53917027 </v>
    <v>       0.50363520       0.46738210       0.44513300 </v>
   </varray>
  </structure>
  <varray name="forces" >
   <v>      -0.06726310       0.07674968       0.18378485 </v>
   <v>      -0.10287333       0.02911417      -0.04177471 </v>
   <v>       0.34532848       0.81116196      -0.09048724 </v>
   <v>       0.11839115      -0.32880538       0.40452201 </v>
   <v>      -0.29390636      -0.58746887      -0.45602304 </v>
  </varray>
  <varray name="stress" >
   <v>      -0.17762071       0.48856226       0.26649920 </v>
   <v>       0.48856226       0.80636365      -0.64125956 </v>
   <v>       0.26649920      -0.64125956      -0.26098117 </v>
  </varray>
  <energy>
   <i name="e_fr_energy">    -24.01268889 </i>
   <i name="e_wo_entrp">    -24.01268889 </i>
   <i name="e_0_energy">     -0.00000000 </i>
   <i name="kinetic">      0.00035672 </i>
   <i name="lattice kinetic">      0.00000000 </i>
   <i name="nosepot">      0.00000000 </i>
   <i name="nosekinetic">      0.00000000 </i>
   <i name="total">    -24.01233217 </i>
  </energy>
  <time name="totalsc">    6.45    6.69</time>
 </calculation>
 <calculation>
  <scstep>
   <time name="dav">    0.15    0.15</time>
   <time name="total">    0.29    0.30</time>
   <energy>
    <i name="alphaZ">      0.24652859 </i>
    <i name="ewald">    129.98989389 </i>
    <i name="hartreedc">   -285.60411924 </i>
    <i name="XCdc">     24.83869097 </i>
    <i name="pawpsdc">    480.53944574 </i>
    <i name="pawaedc">   -481.33479850 </i>
    <i name="eentropy">     -0.00000000 </i>
    <i name="bandstr">    -89.73282185 </i>
    <i name="atom">    197.04175453 </i>
    <i name="e_fr_energy">    -24.01542586 </i>
    <i name="e_wo_entrp">    -24.01542586 </i>
    <i name="e_0_energy">    -24.01542586 </i>
   </energy>
  </scstep>
  <scstep>
   <time name="diag">    0.03    0.04</time>
   <time name="diis">    0.14    0.14</time>
   <time name="orth">    0.00    0.00</time>
   <time name="total">    0.31    0.32</time>
   <energy>
    <i name="e_fr_energy">    -24.01541046 </i>
    <i name="e_wo_entrp">    -24.01541046 </i>
    <i name="e_0_energy">    -24.01541046 </i>
   </energy>
  </scstep>
  <scstep>
   <time name="diag">    0.03    0.03</time>
   <time name="diis">    0.14    0.14</time>
   <time name="orth">    0.00    0.00</time>
   <time name="total">    0.30    0.31</time>
   <energy>
    <i name="e_fr_energy">    -24.01540840 </i>
    <i name="e_wo_entrp">    -24.01540840 </i>
    <i name="e_0_energy">    -24.01540840 </i>
   </energy>
  </scstep>
  <scstep>
   <time name="diag">    0.03    0.03</time>
   <time name="diis">    0.11    0.12</time>
   <time name="orth">    0.00    0.00</time>
   <time name="total">    0.26    0.27</time>
   <energy>
    <i name="alphaZ">      0.24652859 </i>
    <i name="ewald">    129.98989389 </i>
    <i name="hartreedc">   -285.54571403 </i>
    <i name="XCdc">     24.83537797 </i>
    <i name="pawpsdc">    479.40382770 </i>
    <i name="pawaedc">   -480.19845731 </i>
    <i name="eentropy">     -0.00000000 </i>
    <i name="bandstr">    -89.78861945 </i>
    <i name="atom">    197.04175453 </i>
    <i name="e_fr_energy">    -24.01540810 </i>
    <i name="e_wo_entrp">    -24.01540810 </i>
    <i name="e_0_energy">    -24.01540810 </i>
   </energy>
  </scstep>
  <structure>
   <crystal>
    <varray name="basis" >
     <v>      10.00791867       0.00000000       0.00000000 </v>
     <v>      -0.06894756       9.82341097       0.00000000 </v>
     <v>      -0.08173225       0.21777780       9.99520785 </v>
    </varray>
    <i name="volume">    982.64785621 </i>
    <varray name="rec_basis" >
     <v>       0.09992088       0.00070131       0.00080179 </v>
     <v>       0.00000000       0.10179763      -0.00221799 </v>
     <v>       0.00000000       0.00000000       0.10004794 </v>
    </varray>
   </crystal>
   <varray name="positions" >
    <v>       0.53829299       0.40686758       0.36069424 </v>
    <v>       0.39525560       0.47989645       0.43815202 </v>
    <v>       0.55214037       0.56524795       0.44244427 </v>
    <v>       0.52837848       0.41663956       0.53926805 </v>
    <v>       0.50362920       0.46737032       0.44512383 </v>
   </varray>
  </structure>
  <varray name="forces" >
   <v>      -0.06121269       0.06846332       0.17027124 </v>
   <v>      -0.09455941       0.02857597      -0.04001761 </v>
   <v>       0.30899077       0.73554672      -0.08610058 </v>
   <v>       0.10831289      -0.30495340       0.36525433 </v>
   <v>      -0.26151358      -0.52646066      -0.40908632 </v>
  </varray>
  <varray name="stress" >
   <v>      -0.21330320       0.43691751       0.24374661 </v>
   <v>       0.43691751       0.68933443      -0.59158058 </v>
   <v>       0.24374661      -0.59158058      -0.29483343 </v>
  </varray>
  <energy>
   <i name="e_fr_energy">    -24.01540810 </i>
   <i name="e_wo_entrp">    -24.01540810 </i>
   <i name="e_0_energy">     -0.00000000 </i>
   <i name="kinetic">      0.00301346 </i>
   <i name="lattice kinetic">      0.00000000 </i>
   <i name="nosepot">      0.00000000 </i>
   <i name="nosekinetic">      0.00000000 </i>
   <i name="total">    -24.01239464 </i>
  </energy>
  <time name="totalsc">    1.67    1.71</time>
 </calculation>
 <calculation>
  <scstep>
   <time name="dav">    0.18    0.18</time>
   <time name="total">    0.31    0.31</time>
   <energy>
    <i name="alphaZ">      0.24652859 </i>
    <i name="ewald">    129.62530733 </i>
    <i name="hartreedc">   -285.24720939 </i>
    <i name="XCdc">     24.81928842 </i>
    <i name="pawpsdc">    476.98068116 </i>
    <i name="pawaedc">   -477.77415237 </i>
    <i name="eentropy">     -0.00000000 </i>
    <i name="bandstr">    -89.71207081 </i>
    <i name="atom">    197.04175453 </i>
    <i name="e_fr_energy">    -24.01987253 </i>
    <i name="e_wo_entrp">    -24.01987253 </i>
    <i name="e_0_energy">    -24.01987253 </i>
   </energy>
  </scstep>
  <scstep>
   <time name="diag">    0.04    0.04</time>
   <time name="diis">    0.14    0.15</time>
   <time name="orth">    0.00    0.00</time>
   <time name="total">    0.32    0.32</time>
   <energy>
    <i name="e_fr_energy">    -24.01987766 </i>
    <i name="e_wo_entrp">    -24.01987766 </i>
    <i name="e_0_energy">    -24.01987766 </i>
   </energy>
  </scstep>
  <scstep>
   <time name="diag">    0.04    0.04</time>
   <time name="diis">    0.13    0.13</time>
   <time name="orth">    0.00    0.00</time>
   <time name="total">    0.30    0.31</time>
   <energy>
    <i name="e_fr_energy">    -24.01987803 </i>
    <i name="e_wo_entrp">    -24.01987803 </i>
    <i name="e_0_energy">    -24.01987803 </i>
   </energy>
  </scstep>
  <scstep>
   <time name="diag">    0.03    0.04</time>
   <time name="diis">    0.11    0.11</time>
   <time name="orth">    0.00    0.00</time>
   <time name="total">    0.26    0.26</time>
   <energy>
    <i name="alphaZ">      0.24652859 </i>
    <i name="ewald">    129.62530733 </i>
    <i name="hartreedc">   -285.23119475 </i>
    <i name="XCdc">     24.81857953 </i>
    <i name="pawpsdc">    476.91075458 </i>
    <i name="pawaedc">   -477.70404232 </i>
    <i name="eentropy">     -0.00000000 </i>
    <i name="bandstr">    -89.72756592 </i>
    <i name="atom">    197.04175453 </i>
    <i name="e_fr_energy">    -24.01987842 </i>
    <i name="e_wo_entrp">    -24.01987842 </i>
    <i name="e_0_energy">    -24.01987842 </i>
   </energy>
  </scstep>
  <structure>
   <crystal>
    <varray name="basis" >
     <v>      10.00791867       0.00000000       0.00000000 </v>
     <v>      -0.06894756       9.82341097       0.00000000 </v>
     <v>      -0.08173225       0.21777780       9.99520785 </v>
    </varray>
    <i name="volume">    982.64785621 </i>
    <varray name="rec_basis" >
     <v>       0.09992088       0.00070131       0.00080179 </v>
     <v>       0.00000000       0.10179763      -0.00221799 </v>
     <v>       0.00000000       0.00000000       0.10004794 </v>
    </varray>
   </crystal>
   <varray name="positions" >
    <v>       0.53826309       0.40690095       0.36077891 </v>
    <v>       0.39520804       0.47991130       0.43813250 </v>
    <v>       0.55230056       0.56562882       0.44240213 </v>
    <v>       0.52843257       0.41647924       0.53945397 </v>
    <v>       0.50361781       0.46734794       0.44510644 </v>
   </varray>
  </structure>
  <varray name="forces" >
   <v>      -0.04840619       0.04998263       0.14090473 </v>
   <v>      -0.08221361       0.02762170      -0.03706986 </v>
   <v>       0.24227842       0.59641436      -0.07812492 </v>
   <v>       0.08976198      -0.26154219       0.29373224 </v>
   <v>      -0.20185859      -0.41213280      -0.31977881 </v>
  </varray>
  <varray name="stress" >
   <v>      -0.29233957       0.33878148       0.19981840 </v>
   <v>       0.33878148       0.45585363      -0.49545011 </v>
   <v>       0.19981840      -0.49545011      -0.36984491 </v>
  </varray>
  <energy>
   <i name="e_fr_energy">    -24.01987842 </i>
   <i name="e_wo_entrp">    -24.01987842 </i>
   <i name="e_0_energy">     -0.00000000 </i>
   <i name="kinetic">      0.00738631 </i>
   <i name="lattice kinetic">      0.00000000 </i>
   <i name="nosepot">      0.00000000 </i>
   <i name="nosekinetic">      0.00000000 </i>
   <i name="total">    -24.01249211 </i>
  </energy>
  <time name="totalsc">    1.71    1.72</time>
 </calculation>
 <calculation>
  <scstep>
   <time name="dav">    0.13    0.14</time>
   <time name="total">    0.27    0.27</time>
   <energy>
    <i name="alphaZ">      0.24652859 </i>
    <i name="ewald">    129.12354235 </i>
    <i name="hartreedc">   -284.75770474 </i>
    <i name="XCdc">     24.79377117 </i>
    <i name="pawpsdc">    473.81690662 </i>
    <i name="pawaedc">   -474.60791444 </i>
    <i name="eentropy">     -0.00000000 </i>
    <i name="bandstr">    -89.68144539 </i>
    <i name="atom">    197.04175453 </i>
    <i name="e_fr_energy">    -24.02456130 </i>
    <i name="e_wo_entrp">    -24.02456130 </i>
    <i name="e_0_energy">    -24.02456130 </i>
   </energy>
  </scstep>
  <scstep>
   <time name="diag">    0.03    0.03</time>
   <time name="diis">    0.14    0.14</time>
   <time name="orth">    0.00    0.00</time>
   <time name="total">    0.31    0.31</time>
   <energy>
    <i name="e_fr_energy">    -24.02455633 </i>
    <i name="e_wo_entrp">    -24.02455633 </i>
    <i name="e_0_energy">    -24.02455633 </i>
   </energy>
  </scstep>
  <scstep>
   <time name="diag">    0.04    0.04</time>
   <time name="diis">    0.14    0.14</time>
   <time name="orth">    0.00    0.00</time>
   <time name="total">    0.32    0.32</time>
   <energy>
    <i name="e_fr_energy">    -24.02455629 </i>
    <i name="e_wo_entrp">    -24.02455629 </i>
    <i name="e_0_energy">    -24.02455629 </i>
   </energy>
  </scstep>
  <scstep>
   <time name="diag">    0.03    0.04</time>
   <time name="diis">    0.11    0.11</time>
   <time name="orth">    0.00    0.00</time>
   <time name="total">    0.27    0.27</time>
   <energy>
    <i name="alphaZ">      0.24652859 </i>
    <i name="ewald">    129.12354235 </i>
    <i name="hartreedc">   -284.79487219 </i>
    <i name="XCdc">     24.79542010 </i>
    <i name="pawpsdc">    473.91390674 </i>
    <i name="pawaedc">   -474.70540279 </i>
    <i name="eentropy">     -0.00000000 </i>
    <i name="bandstr">    -89.64543351 </i>
    <i name="atom">    197.04175453 </i>
    <i name="e_fr_energy">    -24.02455619 </i>
    <i name="e_wo_entrp">    -24.02455619 </i>
    <i name="e_0_energy">    -24.02455619 </i>
   </energy>
  </scstep>
  <structure>
   <crystal>
    <varray name="basis" >
     <v>      10.00791867       0.00000000       0.00000000 </v>
     <v>      -0.06894756       9.82341097       0.00000000 </v>
     <v>      -0.08173225       0.21777780       9.99520785 </v>
    </varray>
    <i name="volume">    982.64785621 </i>
    <varray name="rec_basis" >
     <v>       0.09992088       0.00070131       0.00080179 </v>
     <v>       0.00000000       0.10179763      -0.00221799 </v>
     <v>       0.00000000       0.00000000       0.10004794 </v>
    </varray>
   </crystal>
   <varray name="positions" >
    <v>       0.53822189       0.40694582       0.36089758 </v>
    <v>       0.39514064       0.47993313       0.43810404 </v>
    <v>       0.55252001       0.56615656       0.44234114 </v>
    <v>       0.52850843       0.41625313       0.53971077 </v>
    <v>       0.50360226       0.46731727       0.44508262 </v>
   </varray>
  </structure>
  <varray name="forces" >
   <v>      -0.03108082       0.02541723       0.10134884 </v>
   <v>      -0.06283256       0.02609487      -0.03266276 </v>
   <v>       0.15248361       0.40841116      -0.06693988 </v>
   <v>       0.06406067      -0.20108757       0.19507519 </v>
   <v>      -0.12320373      -0.25832667      -0.19683351 </v>
  </varray>
  <varray name="stress" >
   <v>      -0.39570290       0.20667156       0.13895218 </v>
   <v>       0.20667156       0.14479906      -0.36274986 </v>
   <v>       0.13895218      -0.36274986      -0.46598823 </v>
  </varray>
  <energy>
   <i name="e_fr_energy">    -24.02455619 </i>
   <i name="e_wo_entrp">    -24.02455619 </i>
   <i name="e_0_energy">     -0.00000000 </i>
   <i name="kinetic">      0.01197134 </i>
   <i name="lattice kinetic">      0.00000000 </i>
   <i name="nosepot">      0.00000000 </i>
   <i name="nosekinetic">      0.00000000 </i>
   <i name="total">    -24.01258485 </i>
  </energy>
  <time name="totalsc">    1.69    1.71</time>
 </calculation>
 <calculation>
  <scstep>
   <time name="dav">    0.14    0.14</time>
   <time name="total">    0.28    0.28</time>
   <energy>
    <i name="alphaZ">      0.24652859 </i>
    <i name="ewald">    128.53090871 </i>
    <i name="hartreedc">   -284.27251091 </i>
    <i name="XCdc">     24.76776006 </i>
    <i name="pawpsdc">    470.34582479 </i>
    <i name="pawaedc">   -471.13521314 </i>
    <i name="eentropy">     -0.00000000 </i>
    <i name="bandstr">    -89.55292913 </i>
    <i name="atom">    197.04175453 </i>
    <i name="e_fr_energy">    -24.02787650 </i>
    <i name="e_wo_entrp">    -24.02787650 </i>
    <i name="e_0_energy">    -24.02787650 </i>
   </energy>
  </scstep>
  <scstep>
   <time name="diag">    0.04    0.04</time>
   <time name="diis">    0.14    0.14</time>
   <time name="orth">    0.00    0.00</time>
   <time name="total">    0.32    0.33</time>
   <energy>
    <i name="e_fr_energy">    -24.02787947 </i>
    <i name="e_wo_entrp">    -24.02787947 </i>
    <i name="e_0_energy">    -24.02787947 </i>
   </energy>
  </scstep>
  <scstep>
   <time name="diag">    0.03    0.03</time>
   <time name="diis">    0.11    0.11</time>
   <time name="orth">    0.00    0.00</time>
   <time name="total">    0.29    0.29</time>
   <energy>
    <i name="e_fr_energy">    -24.02788101 </i>
    <i name="e_wo_entrp">    -24.02788101 </i>
    <i name="e_0_energy">    -24.02788101 </i>
   </energy>
  </scstep>
  <scstep>
   <time name="diag">    0.04    0.04</time>
   <time name="diis">    0.11    0.11</time>
   <time name="orth">    0.00    0.00</time>
   <time name="total">    0.30    0.30</time>
   <energy>
    <i name="e_fr_energy">    -24.02788421 </i>
    <i name="e_wo_entrp">    -24.02788421 </i>
    <i name="e_0_energy">    -24.02788421 </i>
   </energy>
  </scstep>
  <scstep>
   <time name="diag">    0.03    0.04</time>
   <time name="diis">    0.11    0.11</time>
   <time name="orth">    0.00    0.00</time>
   <time name="total">    0.28    0.29</time>
   <energy>
    <i name="e_fr_energy">    -24.02788644 </i>
    <i name="e_wo_entrp">    -24.02788644 </i>
    <i name="e_0_energy">    -24.02788644 </i>
   </energy>
  </scstep>
  <scstep>
   <time name="diag">    0.03    0.03</time>
   <time name="diis">    0.10    0.11</time>
   <time name="orth">    0.00    0.00</time>
   <time name="total">    0.28    0.29</time>
   <energy>
    <i name="e_fr_energy">    -24.02788820 </i>
    <i name="e_wo_entrp">    -24.02788820 </i>
    <i name="e_0_energy">    -24.02788820 </i>
   </energy>
  </scstep>
  <scstep>
   <time name="diag">    0.03    0.03</time>
   <time name="diis">    0.11    0.11</time>
   <time name="orth">    0.00    0.00</time>
   <time name="total">    0.28    0.29</time>
   <energy>
    <i name="e_fr_energy">    -24.02788935 </i>
    <i name="e_wo_entrp">    -24.02788935 </i>
    <i name="e_0_energy">    -24.02788935 </i>
   </energy>
  </scstep>
  <scstep>
   <time name="diag">    0.03    0.03</time>
   <time name="diis">    0.10    0.11</time>
   <time name="orth">    0.01    0.01</time>
   <time name="total">    0.27    0.27</time>
   <energy>
    <i name="alphaZ">      0.24652859 </i>
    <i name="ewald">    128.53090871 </i>
    <i name="hartreedc">   -284.27696947 </i>
    <i name="XCdc">     24.76795095 </i>
    <i name="pawpsdc">    470.23017257 </i>
    <i name="pawaedc">   -471.01952037 </i>
    <i name="eentropy">     -0.00000000 </i>
    <i name="bandstr">    -89.54871563 </i>
    <i name="atom">    197.04175453 </i>
    <i name="e_fr_energy">    -24.02789012 </i>
    <i name="e_wo_entrp">    -24.02789012 </i>
    <i name="e_0_energy">    -24.02789012 </i>
   </energy>
  </scstep>
  <structure>
   <crystal>
    <varray name="basis" >
     <v>      10.00791867       0.00000000       0.00000000 </v>
     <v>      -0.06894756       9.82341097       0.00000000 </v>
     <v>      -0.08173225       0.21777780       9.99520785 </v>
    </varray>
    <i name="volume">    982.64785621 </i>
    <varray name="rec_basis" >
     <v>       0.09992088       0.00070131       0.00080179 </v>
     <v>       0.00000000       0.10179763      -0.00221799 </v>
     <v>       0.00000000       0.00000000       0.10004794 </v>
    </varray>
   </crystal>
   <varray name="positions" >
    <v>       0.53817345       0.40699639       0.36104071 </v>
    <v>       0.39505808       0.47996154       0.43806770 </v>
    <v>       0.55277678       0.56678493       0.44226399 </v>
    <v>       0.52859977       0.41597660       0.54001466 </v>
    <v>       0.50358418       0.46728140       0.44505486 </v>
   </varray>
  </structure>
  <varray name="forces" >
   <v>      -0.01054675      -0.00331902       0.05445364 </v>
   <v>      -0.03796647       0.02386400      -0.02712424 </v>
   <v>       0.04975476       0.19191775      -0.05362881 </v>
   <v>       0.03363949      -0.12924161       0.07890448 </v>
   <v>      -0.03526656      -0.08289344      -0.05255067 </v>
  </varray>
  <varray name="stress" >
   <v>      -0.51314302       0.05453940       0.06670825 </v>
   <v>       0.05453940      -0.21324905      -0.20527740 </v>
   <v>       0.06670825      -0.20527740      -0.57445529 </v>
  </varray>
  <energy>
   <i name="e_fr_energy">    -24.02789012 </i>
   <i name="e_wo_entrp">    -24.02789012 </i>
   <i name="e_0_energy">     -0.00000000 </i>
   <i name="kinetic">      0.01524669 </i>
   <i name="lattice kinetic">      0.00000000 </i>
   <i name="nosepot">      0.00000000 </i>
   <i name="nosekinetic">      0.00000000 </i>
   <i name="total">    -24.01264343 </i>
  </energy>
  <time name="totalsc">    2.81    2.85</time>
 </calculation>
 <calculation>
  <scstep>
   <time name="dav">    0.14    0.14</time>
   <time name="total">    0.27    0.28</time>
   <energy>
    <i name="alphaZ">      0.24652859 </i>
    <i name="ewald">    127.89917482 </i>
    <i name="hartreedc">   -283.74495145 </i>
    <i name="XCdc">     24.73962154 </i>
    <i name="pawpsdc">    466.39346906 </i>
    <i name="pawaedc">   -467.18081399 </i>
    <i name="eentropy">     -0.00000000 </i>
    <i name="bandstr">    -89.42363808 </i>
    <i name="atom">    197.04175453 </i>
    <i name="e_fr_energy">    -24.02885499 </i>
    <i name="e_wo_entrp">    -24.02885499 </i>
    <i name="e_0_energy">    -24.02885499 </i>
   </energy>
  </scstep>
  <scstep>
   <time name="diag">    0.04    0.04</time>
   <time name="diis">    0.14    0.14</time>
   <time name="orth">    0.00    0.00</time>
   <time name="total">    0.37    0.37</time>
   <energy>
    <i name="e_fr_energy">    -24.02885662 </i>
    <i name="e_wo_entrp">    -24.02885662 </i>
    <i name="e_0_energy">    -24.02885662 </i>
   </energy>
  </scstep>
  <scstep>
   <time name="diag">    0.03    0.04</time>
   <time name="diis">    0.13    0.13</time>
   <time name="orth">    0.00    0.00</time>
   <time name="total">    0.30    0.31</time>
   <energy>
    <i name="e_fr_energy">    -24.02885873 </i>
    <i name="e_wo_entrp">    -24.02885873 </i>
    <i name="e_0_energy">    -24.02885873 </i>
   </energy>
  </scstep>
  <scstep>
   <time name="diag">    0.04    0.04</time>
   <time name="diis">    0.12    0.12</time>
   <time name="orth">    0.00    0.00</time>
   <time name="total">    0.27    0.27</time>
   <energy>
    <i name="alphaZ">      0.24652859 </i>
    <i name="ewald">    127.89917482 </i>
    <i name="hartreedc">   -283.72456581 </i>
    <i name="XCdc">     24.73868222 </i>
    <i name="pawpsdc">    466.41490950 </i>
    <i name="pawaedc">   -467.20201386 </i>
    <i name="eentropy">     -0.00000000 </i>
    <i name="bandstr">    -89.44332930 </i>
    <i name="atom">    197.04175453 </i>
    <i name="e_fr_energy">    -24.02885930 </i>
    <i name="e_wo_entrp">    -24.02885930 </i>
    <i name="e_0_energy">    -24.02885930 </i>
   </energy>
  </scstep>
  <structure>
   <crystal>
    <varray name="basis" >
     <v>      10.00791867       0.00000000       0.00000000 </v>
     <v>      -0.06894756       9.82341097       0.00000000 </v>
     <v>      -0.08173225       0.21777780       9.99520785 </v>
    </varray>
    <i name="volume">    982.64785621 </i>
    <varray name="rec_basis" >
     <v>       0.09992088       0.00070131       0.00080179 </v>
     <v>       0.00000000       0.10179763      -0.00221799 </v>
     <v>       0.00000000       0.00000000       0.10004794 </v>
    </varray>
   </crystal>
   <varray name="positions" >
    <v>       0.53812257       0.40704585       0.36119698 </v>
    <v>       0.39496637       0.47999595       0.43802481 </v>
    <v>       0.55304577       0.56746071       0.44217390 </v>
    <v>       0.52869916       0.41566790       0.54033758 </v>
    <v>       0.50356539       0.46724386       0.44502603 </v>
   </varray>
  </structure>
  <varray name="forces" >
   <v>       0.01159958      -0.03413417       0.00343811 </v>
   <v>      -0.01042824       0.02102023      -0.02090894 </v>
   <v>      -0.05475003      -0.03028427      -0.03924028 </v>
   <v>       0.00150974      -0.05286089      -0.04256384 </v>
   <v>       0.05180370       0.09668211       0.09958422 </v>
  </varray>
  <varray name="stress" >
   <v>      -0.64079746      -0.10205735      -0.01074222 </v>
   <v>      -0.10205735      -0.59039690      -0.03665835 </v>
   <v>      -0.01074222      -0.03665835      -0.69011543 </v>
  </varray>
  <energy>
   <i name="e_fr_energy">    -24.02885930 </i>
   <i name="e_wo_entrp">    -24.02885930 </i>
   <i name="e_0_energy">     -0.00000000 </i>
   <i name="kinetic">      0.01620899 </i>
   <i name="lattice kinetic">      0.00000000 </i>
   <i name="nosepot">      0.00000000 </i>
   <i name="nosekinetic">      0.00000000 </i>
   <i name="total">    -24.01265031 </i>
  </energy>
  <time name="totalsc">    1.72    1.74</time>
 </calculation>
 <calculation>
  <scstep>
   <time name="dav">    0.13    0.14</time>
   <time name="total">    0.26    0.27</time>
   <energy>
    <i name="alphaZ">      0.24652859 </i>
    <i name="ewald">    127.27922689 </i>
    <i name="hartreedc">   -283.18646675 </i>
    <i name="XCdc">     24.71023651 </i>
    <i name="pawpsdc">    462.80387937 </i>
    <i name="pawaedc">   -463.58895425 </i>
    <i name="eentropy">     -0.00000000 </i>
    <i name="bandstr">    -89.33347892 </i>
    <i name="atom">    197.04175453 </i>
    <i name="e_fr_energy">    -24.02727402 </i>
    <i name="e_wo_entrp">    -24.02727402 </i>
    <i name="e_0_energy">    -24.02727402 </i>
   </energy>
  </scstep>
  <scstep>
   <time name="diag">    0.04    0.04</time>
   <time name="diis">    0.14    0.14</time>
   <time name="orth">    0.00    0.00</time>
   <time name="total">    0.31    0.32</time>
   <energy>
    <i name="e_fr_energy">    -24.02727566 </i>
    <i name="e_wo_entrp">    -24.02727566 </i>
    <i name="e_0_energy">    -24.02727566 </i>
   </energy>
  </scstep>
  <scstep>
   <time name="diag">    0.03    0.04</time>
   <time name="diis">    0.11    0.11</time>
   <time name="orth">    0.00    0.00</time>
   <time name="total">    0.27    0.28</time>
   <energy>
    <i name="e_fr_energy">    -24.02727653 </i>
    <i name="e_wo_entrp">    -24.02727653 </i>
    <i name="e_0_energy">    -24.02727653 </i>
   </energy>
  </scstep>
  <scstep>
   <time name="diag">    0.03    0.03</time>
   <time name="diis">    0.11    0.11</time>
   <time name="orth">    0.00    0.00</time>
   <time name="total">    0.27    0.28</time>
   <energy>
    <i name="e_fr_energy">    -24.02727773 </i>
    <i name="e_wo_entrp">    -24.02727773 </i>
    <i name="e_0_energy">    -24.02727773 </i>
   </energy>
  </scstep>
  <scstep>
   <time name="diag">    0.03    0.03</time>
   <time name="diis">    0.12    0.12</time>
   <time name="orth">    0.00    0.00</time>
   <time name="total">    0.28    0.29</time>
   <energy>
    <i name="e_fr_energy">    -24.02727943 </i>
    <i name="e_wo_entrp">    -24.02727943 </i>
    <i name="e_0_energy">    -24.02727943 </i>
   </energy>
  </scstep>
  <scstep>
   <time name="diag">    0.03    0.04</time>
   <time name="diis">    0.11    0.11</time>
   <time name="orth">    0.00    0.00</time>
   <time name="total">    0.26    0.26</time>
   <energy>
    <i name="alphaZ">      0.24652859 </i>
    <i name="ewald">    127.27922689 </i>
    <i name="hartreedc">   -283.17667134 </i>
    <i name="XCdc">     24.70982360 </i>
    <i name="pawpsdc">    462.71829942 </i>
    <i name="pawaedc">   -463.50326769 </i>
    <i name="eentropy">     -0.00000000 </i>
    <i name="bandstr">    -89.34297417 </i>
    <i name="atom">    197.04175453 </i>
    <i name="e_fr_energy">    -24.02728018 </i>
    <i name="e_wo_entrp">    -24.02728018 </i>
    <i name="e_0_energy">    -24.02728018 </i>
   </energy>
  </scstep>
  <structure>
   <crystal>
    <varray name="basis" >
     <v>      10.00791867       0.00000000       0.00000000 </v>
     <v>      -0.06894756       9.82341097       0.00000000 </v>
     <v>      -0.08173225       0.21777780       9.99520785 </v>
    </varray>
    <i name="volume">    982.64785621 </i>
    <varray name="rec_basis" >
     <v>       0.09992088       0.00070131       0.00080179 </v>
     <v>       0.00000000       0.10179763      -0.00221799 </v>
     <v>       0.00000000       0.00000000       0.10004794 </v>
    </varray>
   </crystal>
   <varray name="positions" >
    <v>       0.53807444       0.40708690       0.36135408 </v>
    <v>       0.39487215       0.48003562       0.43797687 </v>
    <v>       0.55330145       0.56812926       0.44207434 </v>
    <v>       0.52879874       0.41534644       0.54065023 </v>
    <v>       0.50354766       0.46720824       0.44499920 </v>
   </varray>
  </structure>
  <varray name="forces" >
   <v>       0.03329589      -0.06409122      -0.04729553 </v>
   <v>       0.01775452       0.01753125      -0.01449121 </v>
   <v>      -0.15194755      -0.23957529      -0.02474122 </v>
   <v>      -0.02967701       0.02197999      -0.15891134 </v>
   <v>       0.13027240       0.26428784       0.24573179 </v>
  </varray>
  <varray name="stress" >
   <v>      -0.76754969      -0.24890383      -0.08649002 </v>
   <v>      -0.24890383      -0.95479116       0.12891309 </v>
   <v>      -0.08649002       0.12891309      -0.80281905 </v>
  </varray>
  <energy>
   <i name="e_fr_energy">    -24.02728018 </i>
   <i name="e_wo_entrp">    -24.02728018 </i>
   <i name="e_0_energy">     -0.00000000 </i>
   <i name="kinetic">      0.01466942 </i>
   <i name="lattice kinetic">      0.00000000 </i>
   <i name="nosepot">      0.00000000 </i>
   <i name="nosekinetic">      0.00000000 </i>
   <i name="total">    -24.01261076 </i>
  </energy>
  <time name="totalsc">    2.17    2.23</time>
 </calculation>
 <calculation>
  <scstep>
   <time name="dav">    0.14    0.14</time>
   <time name="total">    0.27    0.28</time>
   <energy>
    <i name="alphaZ">      0.24652859 </i>
    <i name="ewald">    126.71686703 </i>
    <i name="hartreedc">   -282.66067140 </i>
    <i name="XCdc">     24.68280208 </i>
    <i name="pawpsdc">    459.45836034 </i>
    <i name="pawaedc">   -460.24124676 </i>
    <i name="eentropy">     -0.00000000 </i>
    <i name="bandstr">    -89.26814930 </i>
    <i name="atom">    197.04175453 </i>
    <i name="e_fr_energy">    -24.02375490 </i>
    <i name="e_wo_entrp">    -24.02375490 </i>
    <i name="e_0_energy">    -24.02375490 </i>
   </energy>
  </scstep>
  <scstep>
   <time name="diag">    0.03    0.04</time>
   <time name="diis">    0.14    0.14</time>
   <time name="orth">    0.00    0.00</time>
   <time name="total">    0.31    0.32</time>
   <energy>
    <i name="e_fr_energy">    -24.02375649 </i>
    <i name="e_wo_entrp">    -24.02375649 </i>
    <i name="e_0_energy">    -24.02375649 </i>
   </energy>
  </scstep>
  <scstep>
   <time name="diag">    0.03    0.04</time>
   <time name="diis">    0.13    0.13</time>
   <time name="orth">    0.00    0.00</time>
   <time name="total">    0.30    0.31</time>
   <energy>
    <i name="e_fr_energy">    -24.02375895 </i>
    <i name="e_wo_entrp">    -24.02375895 </i>
    <i name="e_0_energy">    -24.02375895 </i>
   </energy>
  </scstep>
  <scstep>
   <time name="diag">    0.03    0.03</time>
   <time name="diis">    0.11    0.12</time>
   <time name="orth">    0.00    0.00</time>
   <time name="total">    0.29    0.29</time>
   <energy>
    <i name="e_fr_energy">    -24.02376007 </i>
    <i name="e_wo_entrp">    -24.02376007 </i>
    <i name="e_0_energy">    -24.02376007 </i>
   </energy>
  </scstep>
  <scstep>
   <time name="diag">    0.04    0.04</time>
   <time name="diis">    0.11    0.11</time>
   <time name="orth">    0.00    0.00</time>
   <time name="total">    0.29    0.29</time>
   <energy>
    <i name="e_fr_energy">    -24.02376185 </i>
    <i name="e_wo_entrp">    -24.02376185 </i>
    <i name="e_0_energy">    -24.02376185 </i>
   </energy>
  </scstep>
  <scstep>
   <time name="diag">    0.03    0.03</time>
   <time name="diis">    0.10    0.10</time>
   <time name="orth">    0.00    0.00</time>
   <time name="total">    0.28    0.28</time>
   <energy>
    <i name="e_fr_energy">    -24.02376312 </i>
    <i name="e_wo_entrp">    -24.02376312 </i>
    <i name="e_0_energy">    -24.02376312 </i>
   </energy>
  </scstep>
  <scstep>
   <time name="diag">    0.04    0.04</time>
   <time name="diis">    0.10    0.10</time>
   <time name="orth">    0.00    0.00</time>
   <time name="total">    0.26    0.26</time>
   <energy>
    <i name="alphaZ">      0.24652859 </i>
    <i name="ewald">    126.71686703 </i>
    <i name="hartreedc">   -282.67893809 </i>
    <i name="XCdc">     24.68362435 </i>
    <i name="pawpsdc">    459.44016615 </i>
    <i name="pawaedc">   -460.22322145 </i>
    <i name="eentropy">     -0.00000000 </i>
    <i name="bandstr">    -89.25054448 </i>
    <i name="atom">    197.04175453 </i>
    <i name="e_fr_energy">    -24.02376337 </i>
    <i name="e_wo_entrp">    -24.02376337 </i>
    <i name="e_0_energy">    -24.02376337 </i>
   </energy>
  </scstep>
  <structure>
   <crystal>
    <varray name="basis" >
     <v>      10.00791867       0.00000000       0.00000000 </v>
     <v>      -0.06894756       9.82341097       0.00000000 </v>
     <v>      -0.08173225       0.21777780       9.99520785 </v>
    </varray>
    <i name="volume">    982.64785621 </i>
    <varray name="rec_basis" >
     <v>       0.09992088       0.00070131       0.00080179 </v>
     <v>       0.00000000       0.10179763      -0.00221799 </v>
     <v>       0.00000000       0.00000000       0.10004794 </v>
    </varray>
   </crystal>
   <varray name="positions" >
    <v>       0.53803414       0.40711246       0.36149976 </v>
    <v>       0.39478221       0.48007967       0.43792543 </v>
    <v>       0.55352005       0.56873911       0.44196880 </v>
    <v>       0.52889091       0.41503122       0.54092453 </v>
    <v>       0.50353263       0.46717792       0.44497730 </v>
   </varray>
  </structure>
  <varray name="forces" >
   <v>       0.05207436      -0.08944635      -0.09233292 </v>
   <v>       0.04562426       0.01333658      -0.00811746 </v>
   <v>      -0.23500421      -0.42184405      -0.01080255 </v>
   <v>      -0.05779520       0.09060123      -0.26186680 </v>
   <v>       0.19474305       0.40730959       0.37332656 </v>
  </varray>
  <varray name="stress" >
   <v>      -0.88167323      -0.37426776      -0.15414743 </v>
   <v>      -0.37426776      -1.27863997       0.27867162 </v>
   <v>      -0.15414743       0.27867162      -0.90161613 </v>
  </varray>
  <energy>
   <i name="e_fr_energy">    -24.02376337 </i>
   <i name="e_wo_entrp">    -24.02376337 </i>
   <i name="e_0_energy">     -0.00000000 </i>
   <i name="kinetic">      0.01123009 </i>
   <i name="lattice kinetic">      0.00000000 </i>
   <i name="nosepot">      0.00000000 </i>
   <i name="nosekinetic">      0.00000000 </i>
   <i name="total">    -24.01253328 </i>
  </energy>
  <time name="totalsc">    2.54    2.58</time>
 </calculation>
 <calculation>
  <scstep>
   <time name="dav">    0.14    0.14</time>
   <time name="total">    0.27    0.28</time>
   <energy>
    <i name="alphaZ">      0.24652859 </i>
    <i name="ewald">    126.25078697 </i>
    <i name="hartreedc">   -282.27290581 </i>
    <i name="XCdc">     24.66223785 </i>
    <i name="pawpsdc">    456.82096620 </i>
    <i name="pawaedc">   -457.60255650 </i>
    <i name="eentropy">     -0.00000000 </i>
    <i name="bandstr">    -89.16628421 </i>
    <i name="atom">    197.04175453 </i>
    <i name="e_fr_energy">    -24.01947237 </i>
    <i name="e_wo_entrp">    -24.01947237 </i>
    <i name="e_0_energy">    -24.01947237 </i>
   </energy>
  </scstep>
  <scstep>
   <time name="diag">    0.04    0.04</time>
   <time name="diis">    0.18    0.18</time>
   <time name="orth">    0.00    0.00</time>
   <time name="total">    0.37    0.37</time>
   <energy>
    <i name="e_fr_energy">    -24.01947482 </i>
    <i name="e_wo_entrp">    -24.01947482 </i>
    <i name="e_0_energy">    -24.01947482 </i>
   </energy>
  </scstep>
  <scstep>
   <time name="diag">    0.03    0.03</time>
   <time name="diis">    0.11    0.11</time>
   <time name="orth">    0.00    0.00</time>
   <time name="total">    0.29    0.29</time>
   <energy>
    <i name="e_fr_energy">    -24.01947523 </i>
    <i name="e_wo_entrp">    -24.01947523 </i>
    <i name="e_0_energy">    -24.01947523 </i>
   </energy>
  </scstep>
  <scstep>
   <time name="diag">    0.03    0.03</time>
   <time name="diis">    0.11    0.12</time>
   <time name="orth">    0.00    0.00</time>
   <time name="total">    0.29    0.29</time>
   <energy>
    <i name="e_fr_energy">    -24.01947823 </i>
    <i name="e_wo_entrp">    -24.01947823 </i>
    <i name="e_0_energy">    -24.01947823 </i>
   </energy>
  </scstep>
  <scstep>
   <time name="diag">    0.03    0.04</time>
   <time name="diis">    0.11    0.11</time>
   <time name="orth">    0.00    0.00</time>
   <time name="total">    0.27    0.27</time>
   <energy>
    <i name="alphaZ">      0.24652859 </i>
    <i name="ewald">    126.25078697 </i>
    <i name="hartreedc">   -282.26245769 </i>
    <i name="XCdc">     24.66176176 </i>
    <i name="pawpsdc">    456.76682005 </i>
    <i name="pawaedc">   -457.54826867 </i>
    <i name="eentropy">     -0.00000000 </i>
    <i name="bandstr">    -89.17640400 </i>
    <i name="atom">    197.04175453 </i>
    <i name="e_fr_energy">    -24.01947845 </i>
    <i name="e_wo_entrp">    -24.01947845 </i>
    <i name="e_0_energy">    -24.01947845 </i>
   </energy>
  </scstep>
  <structure>
   <crystal>
    <varray name="basis" >
     <v>      10.00791867       0.00000000       0.00000000 </v>
     <v>      -0.06894756       9.82341097       0.00000000 </v>
     <v>      -0.08173225       0.21777780       9.99520785 </v>
    </varray>
    <i name="volume">    982.64785621 </i>
    <varray name="rec_basis" >
     <v>       0.09992088       0.00070131       0.00080179 </v>
     <v>       0.00000000       0.10179763      -0.00221799 </v>
     <v>       0.00000000       0.00000000       0.10004794 </v>
    </varray>
   </crystal>
   <varray name="positions" >
    <v>       0.53800607       0.40711655       0.36162315 </v>
    <v>       0.39470328       0.48012705       0.43787203 </v>
    <v>       0.55368128       0.56924544       0.44186065 </v>
    <v>       0.52896880       0.41473966       0.54113563 </v>
    <v>       0.50352163       0.46715575       0.44496291 </v>
   </varray>
  </structure>
  <varray name="forces" >
   <v>       0.06612013      -0.10763998      -0.12781568 </v>
   <v>       0.07071880       0.00857225      -0.00219068 </v>
   <v>      -0.29857661      -0.56592878       0.00193972 </v>
   <v>      -0.08083431       0.14846991      -0.34369079 </v>
   <v>       0.24227257       0.51651993       0.47203948 </v>
  </varray>
  <varray name="stress" >
   <v>      -0.97631113      -0.46903411      -0.20814240 </v>
   <v>      -0.46903411      -1.54259510       0.40139850 </v>
   <v>      -0.20814239       0.40139850      -0.98097745 </v>
  </varray>
  <energy>
   <i name="e_fr_energy">    -24.01947845 </i>
   <i name="e_wo_entrp">    -24.01947845 </i>
   <i name="e_0_energy">     -0.00000000 </i>
   <i name="kinetic">      0.00703554 </i>
   <i name="lattice kinetic">      0.00000000 </i>
   <i name="nosepot">      0.00000000 </i>
   <i name="nosekinetic">      0.00000000 </i>
   <i name="total">    -24.01244291 </i>
  </energy>
  <time name="totalsc">    2.01    2.03</time>
 </calculation>
 <calculation>
  <scstep>
   <time name="dav">    0.17    0.17</time>
   <time name="total">    0.30    0.31</time>
   <energy>
    <i name="alphaZ">      0.24652859 </i>
    <i name="ewald">    125.91103877 </i>
    <i name="hartreedc">   -281.95710510 </i>
    <i name="XCdc">     24.64573789 </i>
    <i name="pawpsdc">    454.89809892 </i>
    <i name="pawaedc">   -455.67838752 </i>
    <i name="eentropy">     -0.00000000 </i>
    <i name="bandstr">    -89.12342887 </i>
    <i name="atom">    197.04175453 </i>
    <i name="e_fr_energy">    -24.01576278 </i>
    <i name="e_wo_entrp">    -24.01576278 </i>
    <i name="e_0_energy">    -24.01576278 </i>
   </energy>
  </scstep>
  <scstep>
   <time name="diag">    0.03    0.03</time>
   <time name="diis">    0.14    0.14</time>
   <time name="orth">    0.00    0.00</time>
   <time name="total">    0.31    0.31</time>
   <energy>
    <i name="e_fr_energy">    -24.01576530 </i>
    <i name="e_wo_entrp">    -24.01576530 </i>
    <i name="e_0_energy">    -24.01576530 </i>
   </energy>
  </scstep>
  <scstep>
   <time name="diag">    0.03    0.04</time>
   <time name="diis">    0.11    0.11</time>
   <time name="orth">    0.00    0.00</time>
   <time name="total">    0.29    0.30</time>
   <energy>
    <i name="e_fr_energy">    -24.01576736 </i>
    <i name="e_wo_entrp">    -24.01576736 </i>
    <i name="e_0_energy">    -24.01576736 </i>
   </energy>
  </scstep>
  <scstep>
   <time name="diag">    0.04    0.04</time>
   <time name="diis">    0.11    0.12</time>
   <time name="orth">    0.00    0.00</time>
   <time name="total">    0.29    0.29</time>
   <energy>
    <i name="e_fr_energy">    -24.01576993 </i>
    <i name="e_wo_entrp">    -24.01576993 </i>
    <i name="e_0_energy">    -24.01576993 </i>
   </energy>
  </scstep>
  <scstep>
   <time name="diag">    0.03    0.03</time>
   <time name="diis">    0.10    0.10</time>
   <time name="orth">    0.00    0.00</time>
   <time name="total">    0.28    0.28</time>
   <energy>
    <i name="e_fr_energy">    -24.01577201 </i>
    <i name="e_wo_entrp">    -24.01577201 </i>
    <i name="e_0_energy">    -24.01577201 </i>
   </energy>
  </scstep>
  <scstep>
   <time name="diag">    0.04    0.04</time>
   <time name="diis">    0.11    0.11</time>
   <time name="orth">    0.00    0.00</time>
   <time name="total">    0.29    0.29</time>
   <energy>
    <i name="e_fr_energy">    -24.01577326 </i>
    <i name="e_wo_entrp">    -24.01577326 </i>
    <i name="e_0_energy">    -24.01577326 </i>
   </energy>
  </scstep>
  <scstep>
   <time name="diag">    0.03    0.04</time>
   <time name="diis">    0.09    0.10</time>
   <time name="orth">    0.00    0.00</time>
   <time name="total">    0.25    0.26</time>
   <energy>
    <i name="alphaZ">      0.24652859 </i>
    <i name="ewald">    125.91103877 </i>
    <i name="hartreedc">   -281.96107828 </i>
    <i name="XCdc">     24.64591228 </i>
    <i name="pawpsdc">    454.80655228 </i>
    <i name="pawaedc">   -455.58687588 </i>
    <i name="eentropy">     -0.00000000 </i>
    <i name="bandstr">    -89.11960623 </i>
    <i name="atom">    197.04175453 </i>
    <i name="e_fr_energy">    -24.01577394 </i>
    <i name="e_wo_entrp">    -24.01577394 </i>
    <i name="e_0_energy">    -24.01577394 </i>
   </energy>
  </scstep>
  <structure>
   <crystal>
    <varray name="basis" >
     <v>      10.00791867       0.00000000       0.00000000 </v>
     <v>      -0.06894756       9.82341097       0.00000000 </v>
     <v>      -0.08173225       0.21777780       9.99520785 </v>
    </varray>
    <i name="volume">    982.64785621 </i>
    <varray name="rec_basis" >
     <v>       0.09992088       0.00070131       0.00080179 </v>
     <v>       0.00000000       0.10179763      -0.00221799 </v>
     <v>       0.00000000       0.00000000       0.10004794 </v>
    </varray>
   </crystal>
   <varray name="positions" >
    <v>       0.53799351       0.40709490       0.36171569 </v>
    <v>       0.39464141       0.48017654       0.43781810 </v>
    <v>       0.55376959       0.56961279       0.44175297 </v>
    <v>       0.52902680       0.41448639       0.54126378 </v>
    <v>       0.50351565       0.46714393       0.44495799 </v>
   </varray>
  </structure>
  <varray name="forces" >
   <v>       0.07381848      -0.11641167      -0.15037121 </v>
   <v>       0.09125640       0.00329069       0.00294189 </v>
   <v>      -0.33944221      -0.66490933       0.01304700 </v>
   <v>      -0.09735012       0.19239267      -0.39905196 </v>
   <v>       0.27149517       0.58564695       0.53372031 </v>
  </varray>
  <varray name="stress" >
   <v>      -1.04794851      -0.52689969      -0.24397563 </v>
   <v>      -0.52689969      -1.73478714       0.48815273 </v>
   <v>      -0.24397563       0.48815273      -1.03872200 </v>
  </varray>
  <energy>
   <i name="e_fr_energy">    -24.01577394 </i>
   <i name="e_wo_entrp">    -24.01577394 </i>
   <i name="e_0_energy">     -0.00000000 </i>
   <i name="kinetic">      0.00339907 </i>
   <i name="lattice kinetic">      0.00000000 </i>
   <i name="nosepot">      0.00000000 </i>
   <i name="nosekinetic">      0.00000000 </i>
   <i name="total">    -24.01237487 </i>
  </energy>
  <dos>
   <i name="efermi">     -8.19401176 </i>
   <total>
    <array>
     <dimension dim="1">gridpoints</dimension>
     <dimension dim="2">spin</dimension>
     <field>energy</field>
     <field>total</field>
     <field>integrated</field>
     <set>
      <set comment="spin 1">
       <r>   -18.8131     0.0000     0.0000 </r>
       <r>   -18.7413     0.0000     0.0000 </r>
       <r>   -18.6696     0.0000     0.0000 </r>
       <r>   -18.5978     0.0000     0.0000 </r>
       <r>   -18.5261     0.0000     0.0000 </r>
       <r>   -18.4543     0.0000     0.0000 </r>
       <r>   -18.3826     0.0000     0.0000 </r>
       <r>   -18.3108     0.0000     0.0000 </r>
       <r>   -18.2391     0.0000     0.0000 </r>
       <r>   -18.1673     0.0000     0.0000 </r>
       <r>   -18.0956     0.0000     0.0000 </r>
       <r>   -18.0238     0.0000     0.0000 </r>
       <r>   -17.9521     0.0000     0.0000 </r>
       <r>   -17.8803     0.0000     0.0000 </r>
       <r>   -17.8086     0.0000     0.0000 </r>
       <r>   -17.7368     0.0000     0.0000 </r>
       <r>   -17.6651     0.0000     0.0000 </r>
       <r>   -17.5933     0.0000     0.0000 </r>
       <r>   -17.5216     0.0001     0.0000 </r>
       <r>   -17.4498     0.0010     0.0001 </r>
       <r>   -17.3781     0.0095     0.0008 </r>
       <r>   -17.3063     0.0686     0.0057 </r>
       <r>   -17.2346     0.3828     0.0333 </r>
       <r>   -17.1628     1.6549     0.1525 </r>
       <r>   -17.0911     5.5479     0.5522 </r>
       <r>   -17.0193    14.4249     1.5914 </r>
       <r>   -16.9476    29.0946     3.6874 </r>
       <r>   -16.8758    45.5291     6.9672 </r>
       <r>   -16.8041    55.2836    10.9495 </r>
       <r>   -16.7323    52.0925    14.7017 </r>
       <r>   -16.6606    38.0935    17.4455 </r>
       <r>   -16.5888    21.6191    19.0025 </r>
       <r>   -16.5171     9.5221    19.6883 </r>
       <r>   -16.4453     3.2548    19.9227 </r>
       <r>   -16.3736     0.8634    19.9849 </r>
       <r>   -16.3018     0.1777    19.9977 </r>
       <r>   -16.2301     0.0284    19.9997 </r>
       <r>   -16.1583     0.0035    20.0000 </r>
       <r>   -16.0866     0.0003    20.0000 </r>
       <r>   -16.0148     0.0000    20.0000 </r>
       <r>   -15.9431     0.0000    20.0000 </r>
       <r>   -15.8713     0.0000    20.0000 </r>
       <r>   -15.7996     0.0000    20.0000 </r>
       <r>   -15.7278     0.0000    20.0000 </r>
       <r>   -15.6561     0.0000    20.0000 </r>
       <r>   -15.5843     0.0000    20.0000 </r>
       <r>   -15.5126     0.0000    20.0000 </r>
       <r>   -15.4408     0.0000    20.0000 </r>
       <r>   -15.3691     0.0000    20.0000 </r>
       <r>   -15.2973     0.0000    20.0000 </r>
       <r>   -15.2256     0.0000    20.0000 </r>
       <r>   -15.1538     0.0000    20.0000 </r>
       <r>   -15.0821     0.0000    20.0000 </r>
       <r>   -15.0103     0.0000    20.0000 </r>
       <r>   -14.9386     0.0000    20.0000 </r>
       <r>   -14.8668     0.0000    20.0000 </r>
       <r>   -14.7951     0.0000    20.0000 </r>
       <r>   -14.7233     0.0000    20.0000 </r>
       <r>   -14.6516     0.0000    20.0000 </r>
       <r>   -14.5798     0.0000    20.0000 </r>
       <r>   -14.5081     0.0000    20.0000 </r>
       <r>   -14.4363     0.0000    20.0000 </r>
       <r>   -14.3646     0.0000    20.0000 </r>
       <r>   -14.2928     0.0000    20.0000 </r>
       <r>   -14.2211     0.0000    20.0000 </r>
       <r>   -14.1493     0.0000    20.0000 </r>
       <r>   -14.0776     0.0000    20.0000 </r>
       <r>   -14.0058     0.0000    20.0000 </r>
       <r>   -13.9341     0.0000    20.0000 </r>
       <r>   -13.8623     0.0000    20.0000 </r>
       <r>   -13.7906     0.0000    20.0000 </r>
       <r>   -13.7188     0.0000    20.0000 </r>
       <r>   -13.6471     0.0000    20.0000 </r>
       <r>   -13.5753     0.0000    20.0000 </r>
       <r>   -13.5036     0.0000    20.0000 </r>
       <r>   -13.4318     0.0000    20.0000 </r>
       <r>   -13.3601     0.0000    20.0000 </r>
       <r>   -13.2883     0.0000    20.0000 </r>
       <r>   -13.2166     0.0000    20.0000 </r>
       <r>   -13.1448     0.0000    20.0000 </r>
       <r>   -13.0731     0.0000    20.0000 </r>
       <r>   -13.0013     0.0000    20.0000 </r>
       <r>   -12.9296     0.0000    20.0000 </r>
       <r>   -12.8578     0.0000    20.0000 </r>
       <r>   -12.7861     0.0000    20.0000 </r>
       <r>   -12.7143     0.0000    20.0000 </r>
       <r>   -12.6426     0.0000    20.0000 </r>
       <r>   -12.5708     0.0000    20.0000 </r>
       <r>   -12.4991     0.0000    20.0000 </r>
       <r>   -12.4273     0.0000    20.0000 </r>
       <r>   -12.3556     0.0000    20.0000 </r>
       <r>   -12.2838     0.0000    20.0000 </r>
       <r>   -12.2121     0.0000    20.0000 </r>
       <r>   -12.1403     0.0000    20.0000 </r>
       <r>   -12.0686     0.0000    20.0000 </r>
       <r>   -11.9968     0.0000    20.0000 </r>
       <r>   -11.9251     0.0000    20.0000 </r>
       <r>   -11.8533     0.0000    20.0000 </r>
       <r>   -11.7816     0.0000    20.0000 </r>
       <r>   -11.7098     0.0000    20.0000 </r>
       <r>   -11.6381     0.0000    20.0000 </r>
       <r>   -11.5663     0.0000    20.0000 </r>
       <r>   -11.4946     0.0000    20.0000 </r>
       <r>   -11.4228     0.0000    20.0000 </r>
       <r>   -11.3511     0.0000    20.0000 </r>
       <r>   -11.2793     0.0000    20.0000 </r>
       <r>   -11.2076     0.0000    20.0000 </r>
       <r>   -11.1358     0.0000    20.0000 </r>
       <r>   -11.0641     0.0000    20.0000 </r>
       <r>   -10.9923     0.0000    20.0000 </r>
       <r>   -10.9206     0.0000    20.0000 </r>
       <r>   -10.8488     0.0000    20.0000 </r>
       <r>   -10.7771     0.0000    20.0000 </r>
       <r>   -10.7053     0.0000    20.0000 </r>
       <r>   -10.6336     0.0000    20.0000 </r>
       <r>   -10.5618     0.0000    20.0000 </r>
       <r>   -10.4901     0.0000    20.0000 </r>
       <r>   -10.4183     0.0000    20.0000 </r>
       <r>   -10.3466     0.0000    20.0000 </r>
       <r>   -10.2748     0.0000    20.0000 </r>
       <r>   -10.2031     0.0000    20.0000 </r>
       <r>   -10.1313     0.0000    20.0000 </r>
       <r>   -10.0596     0.0000    20.0000 </r>
       <r>    -9.9878     0.0002    20.0000 </r>
       <r>    -9.9161     0.0022    20.0002 </r>
       <r>    -9.8443     0.0202    20.0016 </r>
       <r>    -9.7726     0.1427    20.0119 </r>
       <r>    -9.7008     0.7889    20.0687 </r>
       <r>    -9.6291     3.4233    20.3153 </r>
       <r>    -9.5573    11.6761    21.1562 </r>
       <r>    -9.4856    31.3681    23.4156 </r>
       <r>    -9.4138    66.5334    28.2080 </r>
       <r>    -9.3421   111.7017    36.2543 </r>
       <r>    -9.2703   148.8182    46.9744 </r>
       <r>    -9.1986   157.6973    58.3341 </r>
       <r>    -9.1268   133.1400    67.9247 </r>
       <r>    -9.0551    89.6348    74.3812 </r>
       <r>    -8.9833    48.1108    77.8466 </r>
       <r>    -8.9116    20.5620    79.3275 </r>
       <r>    -8.8398     6.9827    79.8304 </r>
       <r>    -8.7681     1.8791    79.9657 </r>
       <r>    -8.6963     0.3995    79.9945 </r>
       <r>    -8.6246     0.0669    79.9993 </r>
       <r>    -8.5528     0.0088    79.9999 </r>
       <r>    -8.4811     0.0009    80.0000 </r>
       <r>    -8.4093     0.0001    80.0000 </r>
       <r>    -8.3376     0.0000    80.0000 </r>
       <r>    -8.2658     0.0000    80.0000 </r>
       <r>    -8.1941     0.0000    80.0000 </r>
       <r>    -8.1223     0.0000    80.0000 </r>
       <r>    -8.0506     0.0000    80.0000 </r>
       <r>    -7.9788     0.0000    80.0000 </r>
       <r>    -7.9071     0.0000    80.0000 </r>
       <r>    -7.8353     0.0000    80.0000 </r>
       <r>    -7.7636     0.0000    80.0000 </r>
       <r>    -7.6918     0.0000    80.0000 </r>
       <r>    -7.6201     0.0000    80.0000 </r>
       <r>    -7.5483     0.0000    80.0000 </r>
       <r>    -7.4766     0.0000    80.0000 </r>
       <r>    -7.4048     0.0000    80.0000 </r>
       <r>    -7.3331     0.0000    80.0000 </r>
       <r>    -7.2613     0.0000    80.0000 </r>
       <r>    -7.1896     0.0000    80.0000 </r>
       <r>    -7.1178     0.0000    80.0000 </r>
       <r>    -7.0461     0.0000    80.0000 </r>
       <r>    -6.9743     0.0000    80.0000 </r>
       <r>    -6.9026     0.0000    80.0000 </r>
       <r>    -6.8308     0.0000    80.0000 </r>
       <r>    -6.7591     0.0000    80.0000 </r>
       <r>    -6.6873     0.0000    80.0000 </r>
       <r>    -6.6156     0.0000    80.0000 </r>
       <r>    -6.5438     0.0000    80.0000 </r>
       <r>    -6.4721     0.0000    80.0000 </r>
       <r>    -6.4003     0.0000    80.0000 </r>
       <r>    -6.3286     0.0000    80.0000 </r>
       <r>    -6.2568     0.0000    80.0000 </r>
       <r>    -6.1851     0.0000    80.0000 </r>
       <r>    -6.1133     0.0000    80.0000 </r>
       <r>    -6.0416     0.0000    80.0000 </r>
       <r>    -5.9698     0.0000    80.0000 </r>
       <r>    -5.8981     0.0000    80.0000 </r>
       <r>    -5.8263     0.0000    80.0000 </r>
       <r>    -5.7546     0.0000    80.0000 </r>
       <r>    -5.6828     0.0000    80.0000 </r>
       <r>    -5.6111     0.0000    80.0000 </r>
[...]
       <r>     0.2724     4.2630   100.4007 </r>
       <r>     0.3442    13.1305   101.3462 </r>
       <r>     0.4159    32.7120   103.7019 </r>
       <r>     0.4877    65.8339   108.4433 </r>
       <r>     0.5594   107.5009   116.1862 </r>
       <r>     0.6312   142.6709   126.4629 </r>
       <r>     0.7029   153.6188   137.5288 </r>
       <r>     0.7747   133.5604   147.1502 </r>
       <r>     0.8464    93.1634   153.8617 </r>
       <r>     0.9182    51.7869   157.5926 </r>
       <r>     0.9899    22.8009   159.2353 </r>
       <r>     1.0617     7.9115   159.8053 </r>
       <r>     1.1334     2.1550   159.9606 </r>
       <r>     1.2052     0.4595   159.9937 </r>
       <r>     1.2769     0.0765   159.9992 </r>
       <r>     1.3487     0.0099   159.9999 </r>
       <r>     1.4204     0.0010   160.0000 </r>
       <r>     1.4922     0.0001   160.0000 </r>
       <r>     1.5639     0.0000   160.0000 </r>
       <r>     1.6357     0.0000   160.0000 </r>
       <r>     1.7074     0.0000   160.0000 </r>
       <r>     1.7792     0.0000   160.0000 </r>
       <r>     1.8509     0.0000   160.0000 </r>
       <r>     1.9227     0.0000   160.0000 </r>
       <r>     1.9944     0.0000   160.0000 </r>
       <r>     2.0662     0.0000   160.0000 </r>
       <r>     2.1379     0.0000   160.0000 </r>
       <r>     2.2097     0.0000   160.0000 </r>
       <r>     2.2814     0.0000   160.0000 </r>
       <r>     2.3532     0.0000   160.0000 </r>
       <r>     2.4249     0.0000   160.0000 </r>
       <r>     2.4967     0.0000   160.0000 </r>
       <r>     2.5684     0.0000   160.0000 </r>
       <r>     2.6402     0.0000   160.0000 </r>
       <r>     2.7119     0.0000   160.0000 </r>
      </set>
     </set>
    </array>
   </total>
  </dos>
  <time name="totalsc">    2.68    2.71</time>
  <eigenvalues>
   <array>
    <dimension dim="1">band</dimension>
    <dimension dim="2">kpoint</dimension>
    <dimension dim="3">spin</dimension>
    <field>eigene</field>
    <field>occ</field>
    <set>
     <set comment="spin 1">
      <set comment="kpoint 1">
       <r>  -16.8064    1.0000 </r>
       <r>   -9.3200    1.0000 </r>
       <r>   -9.2458    1.0000 </r>
       <r>   -9.1700    1.0000 </r>
       <r>   -0.3322    0.0000 </r>
       <r>    0.5690    0.0000 </r>
       <r>    0.6652    0.0000 </r>
       <r>    0.7013    0.0000 </r>
      </set>
      <set comment="kpoint 2">
       <r>  -16.8064    1.0000 </r>
       <r>   -9.3200    1.0000 </r>
       <r>   -9.2458    1.0000 </r>
       <r>   -9.1699    1.0000 </r>
       <r>   -0.3358    0.0000 </r>
       <r>    0.5801    0.0000 </r>
       <r>    0.6696    0.0000 </r>
       <r>    0.7027    0.0000 </r>
      </set>
      <set comment="kpoint 3">
       <r>  -16.8064    1.0000 </r>
       <r>   -9.3200    1.0000 </r>
       <r>   -9.2459    1.0000 </r>
       <r>   -9.1699    1.0000 </r>
       <r>   -0.3294    0.0000 </r>
       <r>    0.5573    0.0000 </r>
       <r>    0.6623    0.0000 </r>
       <r>    0.6908    0.0000 </r>
      </set>
      <set comment="kpoint 4">
       <r>  -16.8064    1.0000 </r>
       <r>   -9.3199    1.0000 </r>
       <r>   -9.2457    1.0000 </r>
       <r>   -9.1699    1.0000 </r>
       <r>   -0.3291    0.0000 </r>
       <r>    0.5576    0.0000 </r>
       <r>    0.6663    0.0000 </r>
       <r>    0.6906    0.0000 </r>
      </set>
     </set>
    </set>
   </array>
  </eigenvalues>
  <separator name="orbital magnetization" >
   <v name="MAGDIPOLOUT">      0.00000000      0.00000000      0.00000000</v>
  </separator>
  <dos>
   <i name="efermi">     -8.19520234 </i>
   <total>
    <array>
     <dimension dim="1">gridpoints</dimension>
     <dimension dim="2">spin</dimension>
     <field>energy</field>
     <field>total</field>
     <field>integrated</field>
     <set>
      <set comment="spin 1">
       <r>   -18.8064     0.0000     0.0000 </r>
       <r>   -18.7347     0.0000     0.0000 </r>
       <r>   -18.6631     0.0000     0.0000 </r>
       <r>   -18.5914     0.0000     0.0000 </r>
       <r>   -18.5197     0.0000     0.0000 </r>
       <r>   -18.4480     0.0000     0.0000 </r>
       <r>   -18.3763     0.0000     0.0000 </r>
       <r>   -18.3046     0.0000     0.0000 </r>
       <r>   -18.2329     0.0000     0.0000 </r>
       <r>   -18.1612     0.0000     0.0000 </r>
       <r>   -18.0895     0.0000     0.0000 </r>
       <r>   -18.0178     0.0000     0.0000 </r>
       <r>   -17.9461     0.0000     0.0000 </r>
       <r>   -17.8744     0.0000     0.0000 </r>
       <r>   -17.8027     0.0000     0.0000 </r>
       <r>   -17.7310     0.0000     0.0000 </r>
       <r>   -17.6593     0.0000     0.0000 </r>
       <r>   -17.5876     0.0000     0.0000 </r>
       <r>   -17.5159     0.0000     0.0000 </r>
       <r>   -17.4442     0.0001     0.0000 </r>
       <r>   -17.3725     0.0008     0.0001 </r>
       <r>   -17.3008     0.0057     0.0005 </r>
       <r>   -17.2291     0.0325     0.0028 </r>
       <r>   -17.1574     0.1432     0.0131 </r>
       <r>   -17.0857     0.4909     0.0483 </r>
       <r>   -17.0140     1.3086     0.1421 </r>
       <r>   -16.9423     2.7117     0.3365 </r>
       <r>   -16.8706     4.3689     0.6497 </r>
       <r>   -16.7989     5.4732     1.0422 </r>
       <r>   -16.7272     5.3315     1.4244 </r>
       <r>   -16.6555     4.0383     1.7139 </r>
       <r>   -16.5838     2.3784     1.8845 </r>
       <r>   -16.5121     1.0890     1.9625 </r>
       <r>   -16.4404     0.3877     1.9903 </r>
       <r>   -16.3687     0.1073     1.9980 </r>
       <r>   -16.2970     0.0231     1.9997 </r>
       <r>   -16.2254     0.0039     2.0000 </r>
       <r>   -16.1537     0.0005     2.0000 </r>
       <r>   -16.0820     0.0001     2.0000 </r>
       <r>   -16.0103     0.0000     2.0000 </r>
       <r>   -15.9386     0.0000     2.0000 </r>
       <r>   -15.8669     0.0000     2.0000 </r>
       <r>   -15.7952     0.0000     2.0000 </r>
       <r>   -15.7235     0.0000     2.0000 </r>
       <r>   -15.6518     0.0000     2.0000 </r>
       <r>   -15.5801     0.0000     2.0000 </r>
       <r>   -15.5084     0.0000     2.0000 </r>
       <r>   -15.4367     0.0000     2.0000 </r>
       <r>   -15.3650     0.0000     2.0000 </r>
       <r>   -15.2933     0.0000     2.0000 </r>
       <r>   -15.2216     0.0000     2.0000 </r>
       <r>   -15.1499     0.0000     2.0000 </r>
       <r>   -15.0782     0.0000     2.0000 </r>
       <r>   -15.0065     0.0000     2.0000 </r>
       <r>   -14.9348     0.0000     2.0000 </r>
       <r>   -14.8631     0.0000     2.0000 </r>
       <r>   -14.7914     0.0000     2.0000 </r>
       <r>   -14.7197     0.0000     2.0000 </r>
       <r>   -14.6480     0.0000     2.0000 </r>
       <r>   -14.5763     0.0000     2.0000 </r>
       <r>   -14.5046     0.0000     2.0000 </r>
       <r>   -14.4329     0.0000     2.0000 </r>
       <r>   -14.3612     0.0000     2.0000 </r>
       <r>   -14.2895     0.0000     2.0000 </r>
       <r>   -14.2178     0.0000     2.0000 </r>
       <r>   -14.1461     0.0000     2.0000 </r>
       <r>   -14.0744     0.0000     2.0000 </r>
       <r>   -14.0027     0.0000     2.0000 </r>
       <r>   -13.9310     0.0000     2.0000 </r>
       <r>   -13.8593     0.0000     2.0000 </r>
       <r>   -13.7876     0.0000     2.0000 </r>
       <r>   -13.7160     0.0000     2.0000 </r>
       <r>   -13.6443     0.0000     2.0000 </r>
       <r>   -13.5726     0.0000     2.0000 </r>
       <r>   -13.5009     0.0000     2.0000 </r>
       <r>   -13.4292     0.0000     2.0000 </r>
       <r>   -13.3575     0.0000     2.0000 </r>
       <r>   -13.2858     0.0000     2.0000 </r>
       <r>   -13.2141     0.0000     2.0000 </r>
       <r>   -13.1424     0.0000     2.0000 </r>
       <r>   -13.0707     0.0000     2.0000 </r>
       <r>   -12.9990     0.0000     2.0000 </r>
       <r>   -12.9273     0.0000     2.0000 </r>
       <r>   -12.8556     0.0000     2.0000 </r>
       <r>   -12.7839     0.0000     2.0000 </r>
       <r>   -12.7122     0.0000     2.0000 </r>
       <r>   -12.6405     0.0000     2.0000 </r>
       <r>   -12.5688     0.0000     2.0000 </r>
       <r>   -12.4971     0.0000     2.0000 </r>
       <r>   -12.4254     0.0000     2.0000 </r>
       <r>   -12.3537     0.0000     2.0000 </r>
       <r>   -12.2820     0.0000     2.0000 </r>
       <r>   -12.2103     0.0000     2.0000 </r>
       <r>   -12.1386     0.0000     2.0000 </r>
       <r>   -12.0669     0.0000     2.0000 </r>
       <r>   -11.9952     0.0000     2.0000 </r>
       <r>   -11.9235     0.0000     2.0000 </r>
       <r>   -11.8518     0.0000     2.0000 </r>
       <r>   -11.7801     0.0000     2.0000 </r>
       <r>   -11.7084     0.0000     2.0000 </r>
       <r>   -11.6367     0.0000     2.0000 </r>
       <r>   -11.5650     0.0000     2.0000 </r>
       <r>   -11.4933     0.0000     2.0000 </r>
       <r>   -11.4216     0.0000     2.0000 </r>
       <r>   -11.3499     0.0000     2.0000 </r>
       <r>   -11.2782     0.0000     2.0000 </r>
       <r>   -11.2066     0.0000     2.0000 </r>
       <r>   -11.1349     0.0000     2.0000 </r>
       <r>   -11.0632     0.0000     2.0000 </r>
       <r>   -10.9915     0.0000     2.0000 </r>
       <r>   -10.9198     0.0000     2.0000 </r>
       <r>   -10.8481     0.0000     2.0000 </r>
       <r>   -10.7764     0.0000     2.0000 </r>
       <r>   -10.7047     0.0000     2.0000 </r>
       <r>   -10.6330     0.0000     2.0000 </r>
       <r>   -10.5613     0.0000     2.0000 </r>
       <r>   -10.4896     0.0000     2.0000 </r>
       <r>   -10.4179     0.0000     2.0000 </r>
       <r>   -10.3462     0.0000     2.0000 </r>
       <r>   -10.2745     0.0000     2.0000 </r>
       <r>   -10.2028     0.0000     2.0000 </r>
       <r>   -10.1311     0.0000     2.0000 </r>
       <r>   -10.0594     0.0000     2.0000 </r>
       <r>    -9.9877     0.0000     2.0000 </r>
       <r>    -9.9160     0.0003     2.0000 </r>
       <r>    -9.8443     0.0029     2.0002 </r>
       <r>    -9.7726     0.0189     2.0016 </r>
       <r>    -9.7009     0.0969     2.0085 </r>
       <r>    -9.6292     0.3920     2.0366 </r>
       <r>    -9.5575     1.2558     2.1267 </r>
       <r>    -9.4858     3.1999     2.3561 </r>
       <r>    -9.4141     6.5233     2.8238 </r>
       <r>    -9.3424    10.6996     3.5909 </r>
       <r>    -9.2707    14.1921     4.6085 </r>
       <r>    -9.1990    15.2761     5.7037 </r>
       <r>    -9.1273    13.3579     6.6614 </r>
       <r>    -9.0556     9.4742     7.3407 </r>
       <r>    -8.9839     5.4295     7.7300 </r>
       <r>    -8.9122     2.5009     7.9093 </r>
       <r>    -8.8405     0.9205     7.9753 </r>
       <r>    -8.7688     0.2692     7.9946 </r>
       <r>    -8.6972     0.0623     7.9991 </r>
       <r>    -8.6255     0.0113     7.9999 </r>
       <r>    -8.5538     0.0016     8.0000 </r>
       <r>    -8.4821     0.0002     8.0000 </r>
       <r>    -8.4104     0.0000     8.0000 </r>
       <r>    -8.3387     0.0000     8.0000 </r>
       <r>    -8.2670     0.0000     8.0000 </r>
       <r>    -8.1953     0.0000     8.0000 </r>
       <r>    -8.1236     0.0000     8.0000 </r>
       <r>    -8.0519     0.0000     8.0000 </r>
       <r>    -7.9802     0.0000     8.0000 </r>
       <r>    -7.9085     0.0000     8.0000 </r>
       <r>    -7.8368     0.0000     8.0000 </r>
       <r>    -7.7651     0.0000     8.0000 </r>
       <r>    -7.6934     0.0000     8.0000 </r>
       <r>    -7.6217     0.0000     8.0000 </r>
       <r>    -7.5500     0.0000     8.0000 </r>
       <r>    -7.4783     0.0000     8.0000 </r>
       <r>    -7.4066     0.0000     8.0000 </r>
       <r>    -7.3349     0.0000     8.0000 </r>
       <r>    -7.2632     0.0000     8.0000 </r>
       <r>    -7.1915     0.0000     8.0000 </r>
       <r>    -7.1198     0.0000     8.0000 </r>
       <r>    -7.0481     0.0000     8.0000 </r>
       <r>    -6.9764     0.0000     8.0000 </r>
       <r>    -6.9047     0.0000     8.0000 </r>
       <r>    -6.8330     0.0000     8.0000 </r>
       <r>    -6.7613     0.0000     8.0000 </r>
       <r>    -6.6896     0.0000     8.0000 </r>
       <r>    -6.6179     0.0000     8.0000 </r>
       <r>    -6.5462     0.0000     8.0000 </r>
       <r>    -6.4745     0.0000     8.0000 </r>
       <r>    -6.4028     0.0000     8.0000 </r>
       <r>    -6.3311     0.0000     8.0000 </r>
       <r>    -6.2594     0.0000     8.0000 </r>
       <r>    -6.1878     0.0000     8.0000 </r>
       <r>    -6.1161     0.0000     8.0000 </r>
       <r>    -6.0444     0.0000     8.0000 </r>
       <r>    -5.9727     0.0000     8.0000 </r>
       <r>    -5.9010     0.0000     8.0000 </r>
       <r>    -5.8293     0.0000     8.0000 </r>
       <r>    -5.7576     0.0000     8.0000 </r>
       <r>    -5.6859     0.0000     8.0000 </r>
       <r>    -5.6142     0.0000     8.0000 </r>
       <r>    -5.5425     0.0000     8.0000 </r>
       <r>    -5.4708     0.0000     8.0000 </r>
       <r>    -5.3991     0.0000     8.0000 </r>
       <r>    -5.3274     0.0000     8.0000 </r>
       <r>    -5.2557     0.0000     8.0000 </r>
       <r>    -5.1840     0.0000     8.0000 </r>
       <r>    -5.1123     0.0000     8.0000 </r>
       <r>    -5.0406     0.0000     8.0000 </r>
       <r>    -4.9689     0.0000     8.0000 </r>
       <r>    -4.8972     0.0000     8.0000 </r>
       <r>    -4.8255     0.0000     8.0000 </r>
       <r>    -4.7538     0.0000     8.0000 </r>
       <r>    -4.6821     0.0000     8.0000 </r>
       <r>    -4.6104     0.0000     8.0000 </r>
       <r>    -4.5387     0.0000     8.0000 </r>
       <r>    -4.4670     0.0000     8.0000 </r>
       <r>    -4.3953     0.0000     8.0000 </r>
       <r>    -4.3236     0.0000     8.0000 </r>
       <r>    -4.2519     0.0000     8.0000 </r>
       <r>    -4.1802     0.0000     8.0000 </r>
       <r>    -4.1085     0.0000     8.0000 </r>
       <r>    -4.0368     0.0000     8.0000 </r>
       <r>    -3.9651     0.0000     8.0000 </r>
       <r>    -3.8934     0.0000     8.0000 </r>
       <r>    -3.8217     0.0000     8.0000 </r>
       <r>    -3.7501     0.0000     8.0000 </r>
       <r>    -3.6784     0.0000     8.0000 </r>
       <r>    -3.6067     0.0000     8.0000 </r>
       <r>    -3.5350     0.0000     8.0000 </r>
       <r>    -3.4633     0.0000     8.0000 </r>
       <r>    -3.3916     0.0000     8.0000 </r>
       <r>    -3.3199     0.0000     8.0000 </r>
       <r>    -3.2482     0.0000     8.0000 </r>
       <r>    -3.1765     0.0000     8.0000 </r>
       <r>    -3.1048     0.0000     8.0000 </r>
       <r>    -3.0331     0.0000     8.0000 </r>
       <r>    -2.9614     0.0000     8.0000 </r>
       <r>    -2.8897     0.0000     8.0000 </r>
       <r>    -2.8180     0.0000     8.0000 </r>
       <r>    -2.7463     0.0000     8.0000 </r>
       <r>    -2.6746     0.0000     8.0000 </r>
       <r>    -2.6029     0.0000     8.0000 </r>
       <r>    -2.5312     0.0000     8.0000 </r>
       <r>    -2.4595     0.0000     8.0000 </r>
       <r>    -2.3878     0.0000     8.0000 </r>
       <r>    -2.3161     0.0000     8.0000 </r>
       <r>    -2.2444     0.0000     8.0000 </r>
       <r>    -2.1727     0.0000     8.0000 </r>
       <r>    -2.1010     0.0000     8.0000 </r>
       <r>    -2.0293     0.0000     8.0000 </r>
       <r>    -1.9576     0.0000     8.0000 </r>
       <r>    -1.8859     0.0000     8.0000 </r>
       <r>    -1.8142     0.0000     8.0000 </r>
       <r>    -1.7425     0.0000     8.0000 </r>
       <r>    -1.6708     0.0000     8.0000 </r>
       <r>    -1.5991     0.0000     8.0000 </r>
       <r>    -1.5274     0.0000     8.0000 </r>
       <r>    -1.4557     0.0000     8.0000 </r>
       <r>    -1.3840     0.0000     8.0000 </r>
       <r>    -1.3123     0.0000     8.0000 </r>
       <r>    -1.2407     0.0000     8.0000 </r>
       <r>    -1.1690     0.0000     8.0000 </r>
       <r>    -1.0973     0.0000     8.0000 </r>
       <r>    -1.0256     0.0000     8.0000 </r>
       <r>    -0.9539     0.0001     8.0000 </r>
       <r>    -0.8822     0.0012     8.0001 </r>
       <r>    -0.8105     0.0085     8.0007 </r>
       <r>    -0.7388     0.0458     8.0040 </r>
       <r>    -0.6671     0.1913     8.0177 </r>
       <r>    -0.5954     0.6209     8.0622 </r>
       <r>    -0.5237     1.5664     8.1745 </r>
       <r>    -0.4520     3.0725     8.3948 </r>
       <r>    -0.3803     4.6865     8.7308 </r>
       <r>    -0.3086     5.5587     9.1294 </r>
       <r>    -0.2369     5.1272     9.4970 </r>
       <r>    -0.1652     3.6776     9.7607 </r>
       <r>    -0.0935     2.0513     9.9077 </r>
       <r>    -0.0218     0.8900     9.9715 </r>
       <r>     0.0499     0.3035     9.9933 </r>
       <r>     0.1216     0.1008    10.0005 </r>
       <r>     0.1933     0.1259    10.0096 </r>
       <r>     0.2650     0.4325    10.0406 </r>
       <r>     0.3367     1.3406    10.1367 </r>
       <r>     0.4084     3.3480    10.3767 </r>
       <r>     0.4801     6.7400    10.8600 </r>
       <r>     0.5518    10.9788    11.6471 </r>
       <r>     0.6235    14.4909    12.6861 </r>
       <r>     0.6952    15.4744    13.7955 </r>
       <r>     0.7669    13.3153    14.7502 </r>
       <r>     0.8386     9.1819    15.4085 </r>
       <r>     0.9103     5.0444    15.7702 </r>
       <r>     0.9820     2.1962    15.9276 </r>
       <r>     1.0537     0.7543    15.9817 </r>
       <r>     1.1254     0.2036    15.9963 </r>
       <r>     1.1971     0.0431    15.9994 </r>
       <r>     1.2687     0.0071    15.9999 </r>
       <r>     1.3404     0.0009    16.0000 </r>
       <r>     1.4121     0.0001    16.0000 </r>
       <r>     1.4838     0.0000    16.0000 </r>
       <r>     1.5555     0.0000    16.0000 </r>
       <r>     1.6272     0.0000    16.0000 </r>
       <r>     1.6989     0.0000    16.0000 </r>
       <r>     1.7706     0.0000    16.0000 </r>
       <r>     1.8423     0.0000    16.0000 </r>
       <r>     1.9140     0.0000    16.0000 </r>
       <r>     1.9857     0.0000    16.0000 </r>
       <r>     2.0574     0.0000    16.0000 </r>
       <r>     2.1291     0.0000    16.0000 </r>
       <r>     2.2008     0.0000    16.0000 </r>
       <r>     2.2725     0.0000    16.0000 </r>
       <r>     2.3442     0.0000    16.0000 </r>
       <r>     2.4159     0.0000    16.0000 </r>
       <r>     2.4876     0.0000    16.0000 </r>
       <r>     2.5593     0.0000    16.0000 </r>
       <r>     2.6310     0.0000    16.0000 </r>
       <r>     2.7027     0.0000    16.0000 </r>
      </set>
     </set>
    </array>
   </total>
  </dos>
 </calculation>
 <structure name="finalpos" >
  <crystal>
   <varray name="basis" >
    <v>      10.00791867       0.00000000       0.00000000 </v>
    <v>      -0.06894756       9.82341097       0.00000000 </v>
    <v>      -0.08173225       0.21777780       9.99520785 </v>
   </varray>
   <i name="volume">    982.64785621 </i>
   <varray name="rec_basis" >
    <v>       0.09992088       0.00070131       0.00080179 </v>
    <v>       0.00000000       0.10179763      -0.00221799 </v>
    <v>       0.00000000       0.00000000       0.10004794 </v>
   </varray>
  </crystal>
  <varray name="positions" >
   <v>       0.53799825       0.40704547       0.36177194 </v>
   <v>       0.39460155       0.48022682       0.43776487 </v>
   <v>       0.55377500       0.56981680       0.44164843 </v>
   <v>       0.52906089       0.41428250       0.54129562 </v>
   <v>       0.50351528       0.46714385       0.44496379 </v>
  </varray>
  <varray name="velocities" >
   <v>       0.00000475      -0.00004943       0.00005625 </v>
   <v>      -0.00003986       0.00005028      -0.00005323 </v>
   <v>       0.00000541       0.00020401      -0.00010454 </v>
   <v>       0.00003409      -0.00020389       0.00003184 </v>
   <v>      -0.00000036      -0.00000008       0.00000580 </v>
  </varray>
 </structure>
</modeling>
