unknown system                          
           1
    10.007919    0.000000    0.000000
    -0.068948    9.823411    0.000000
    -0.081732    0.217778    9.995208
   H    C 
   4   1
Direct configuration=     1
   0.53830857  0.40685010  0.36065067
   0.39528035  0.47988880  0.43816187
   0.55205573  0.56504813  0.44246563
   0.52835069  0.41672301  0.53917027
   0.50363520  0.46738210  0.44513300
Direct configuration=     2
   0.53829299  0.40686758  0.36069424
   0.39525560  0.47989645  0.43815202
   0.55214037  0.56524795  0.44244427
   0.52837848  0.41663956  0.53926805
   0.50362920  0.46737032  0.44512383
Direct configuration=     3
   0.53826309  0.40690095  0.36077891
   0.39520804  0.47991130  0.43813250
   0.55230056  0.56562882  0.44240213
   0.52843257  0.41647924  0.53945397
   0.50361781  0.46734794  0.44510644
Direct configuration=     4
   0.53822189  0.40694582  0.36089758
   0.39514064  0.47993313  0.43810404
   0.55252001  0.56615656  0.44234114
   0.52850843  0.41625313  0.53971077
   0.50360226  0.46731727  0.44508262
Direct configuration=     5
   0.53817345  0.40699639  0.36104071
   0.39505808  0.47996154  0.43806770
   0.55277678  0.56678493  0.44226399
   0.52859977  0.41597660  0.54001466
   0.50358418  0.46728140  0.44505486
Direct configuration=     6
   0.53812257  0.40704585  0.36119698
   0.39496637  0.47999595  0.43802481
   0.55304577  0.56746071  0.44217390
   0.52869916  0.41566790  0.54033758
   0.50356539  0.46724386  0.44502603
Direct configuration=     7
   0.53807444  0.40708690  0.36135408
   0.39487215  0.48003562  0.43797687
   0.55330145  0.56812926  0.44207434
   0.52879874  0.41534644  0.54065023
   0.50354766  0.46720824  0.44499920
Direct configuration=     8
   0.53803414  0.40711246  0.36149976
   0.39478221  0.48007967  0.43792543
   0.55352005  0.56873911  0.44196880
   0.52889091  0.41503122  0.54092453
   0.50353263  0.46717792  0.44497730
Direct configuration=     9
   0.53800607  0.40711655  0.36162315
   0.39470328  0.48012705  0.43787203
   0.55368128  0.56924544  0.44186065
   0.52896880  0.41473966  0.54113563
   0.50352163  0.46715575  0.44496291
Direct configuration=    10
   0.53799351  0.40709490  0.36171569
   0.39464141  0.48017654  0.43781810
   0.55376959  0.56961279  0.44175297
   0.52902680  0.41448639  0.54126378
   0.50351565  0.46714393  0.44495799
