   5   5   0   0
  0.2137541E+03  0.1026279E-08  0.1019003E-08  0.1022622E-08  0.5000000E-15
  1.000000000000000E-004
  CAR 
 unknown system                          
      2.70105722    -19.06581188  301     -8.39990431      1.00000000
    -19.066  0.0000E+00  0.0000E+00
    -18.993  0.0000E+00  0.0000E+00
    -18.921  0.0000E+00  0.0000E+00
    -18.848  0.0000E+00  0.0000E+00
    -18.776  0.0000E+00  0.0000E+00
    -18.703  0.0000E+00  0.0000E+00
    -18.630  0.0000E+00  0.0000E+00
    -18.558  0.0000E+00  0.0000E+00
    -18.485  0.0000E+00  0.0000E+00
    -18.413  0.0000E+00  0.0000E+00
    -18.340  0.0000E+00  0.0000E+00
    -18.268  0.0000E+00  0.0000E+00
    -18.195  0.1219E-13  0.8771E-15
    -18.123  0.6658E-12  0.4879E-13
    -18.050  0.2867E-10  0.2112E-11
    -17.977  0.9563E-09  0.7092E-10
    -17.905  0.2470E-07  0.1848E-08
    -17.832  0.4943E-06  0.3742E-07
    -17.760  0.7667E-05  0.5890E-06
    -17.687  0.9217E-04  0.7220E-05
    -17.615  0.8594E-03  0.6903E-04
    -17.542  0.6216E-02  0.5161E-03
    -17.470  0.3490E-01  0.3026E-02
    -17.397  0.1521E+00  0.1396E-01
    -17.324  0.5152E+00  0.5099E-01
    -17.252  0.1356E+01  0.1484E+00
    -17.179  0.2774E+01  0.3477E+00
    -17.107  0.4416E+01  0.6649E+00
    -17.034  0.5471E+01  0.1058E+01
    -16.962  0.5277E+01  0.1437E+01
    -16.889  0.3965E+01  0.1721E+01
    -16.817  0.2321E+01  0.1888E+01
    -16.744  0.1060E+01  0.1964E+01
    -16.671  0.3772E+00  0.1991E+01
    -16.599  0.1047E+00  0.1998E+01
    -16.526  0.2270E-01  0.2000E+01
    -16.454  0.3839E-02  0.2000E+01
    -16.381  0.5070E-03  0.2000E+01
    -16.309  0.5227E-04  0.2000E+01
    -16.236  0.4209E-05  0.2000E+01
    -16.164  0.2646E-06  0.2000E+01
    -16.091  0.1299E-07  0.2000E+01
    -16.018  0.4980E-09  0.2000E+01
    -15.946  0.1491E-10  0.2000E+01
    -15.873  0.3488E-12  0.2000E+01
    -15.801  0.5914E-14  0.2000E+01
    -15.728  0.0000E+00  0.2000E+01
    -15.656  0.0000E+00  0.2000E+01
    -15.583  0.0000E+00  0.2000E+01
    -15.511  0.0000E+00  0.2000E+01
    -15.438  0.0000E+00  0.2000E+01
    -15.365  0.0000E+00  0.2000E+01
    -15.293  0.0000E+00  0.2000E+01
    -15.220  0.0000E+00  0.2000E+01
    -15.148  0.0000E+00  0.2000E+01
    -15.075  0.0000E+00  0.2000E+01
    -15.003  0.0000E+00  0.2000E+01
    -14.930  0.0000E+00  0.2000E+01
    -14.858  0.0000E+00  0.2000E+01
    -14.785  0.0000E+00  0.2000E+01
    -14.712  0.0000E+00  0.2000E+01
    -14.640  0.0000E+00  0.2000E+01
    -14.567  0.0000E+00  0.2000E+01
    -14.495  0.0000E+00  0.2000E+01
    -14.422  0.0000E+00  0.2000E+01
    -14.350  0.0000E+00  0.2000E+01
    -14.277  0.0000E+00  0.2000E+01
    -14.205  0.0000E+00  0.2000E+01
    -14.132  0.0000E+00  0.2000E+01
    -14.059  0.0000E+00  0.2000E+01
    -13.987  0.0000E+00  0.2000E+01
    -13.914  0.0000E+00  0.2000E+01
    -13.842  0.0000E+00  0.2000E+01
    -13.769  0.0000E+00  0.2000E+01
    -13.697  0.0000E+00  0.2000E+01
    -13.624  0.0000E+00  0.2000E+01
    -13.552  0.0000E+00  0.2000E+01
    -13.479  0.0000E+00  0.2000E+01
    -13.406  0.0000E+00  0.2000E+01
    -13.334  0.0000E+00  0.2000E+01
    -13.261  0.0000E+00  0.2000E+01
    -13.189  0.0000E+00  0.2000E+01
    -13.116  0.0000E+00  0.2000E+01
    -13.044  0.0000E+00  0.2000E+01
    -12.971  0.0000E+00  0.2000E+01
    -12.899  0.0000E+00  0.2000E+01
    -12.826  0.0000E+00  0.2000E+01
    -12.753  0.0000E+00  0.2000E+01
    -12.681  0.0000E+00  0.2000E+01
    -12.608  0.0000E+00  0.2000E+01
    -12.536  0.0000E+00  0.2000E+01
    -12.463  0.0000E+00  0.2000E+01
    -12.391  0.0000E+00  0.2000E+01
    -12.318  0.0000E+00  0.2000E+01
    -12.246  0.0000E+00  0.2000E+01
    -12.173  0.0000E+00  0.2000E+01
    -12.100  0.0000E+00  0.2000E+01
    -12.028  0.0000E+00  0.2000E+01
    -11.955  0.0000E+00  0.2000E+01
    -11.883  0.0000E+00  0.2000E+01
    -11.810  0.0000E+00  0.2000E+01
    -11.738  0.0000E+00  0.2000E+01
    -11.665  0.0000E+00  0.2000E+01
    -11.593  0.0000E+00  0.2000E+01
    -11.520  0.0000E+00  0.2000E+01
    -11.447  0.0000E+00  0.2000E+01
    -11.375  0.0000E+00  0.2000E+01
    -11.302  0.0000E+00  0.2000E+01
    -11.230  0.0000E+00  0.2000E+01
    -11.157  0.0000E+00  0.2000E+01
    -11.085  0.0000E+00  0.2000E+01
    -11.012  0.0000E+00  0.2000E+01
    -10.940  0.0000E+00  0.2000E+01
    -10.867  0.0000E+00  0.2000E+01
    -10.794  0.0000E+00  0.2000E+01
    -10.722  0.0000E+00  0.2000E+01
    -10.649  0.1555E-14  0.2000E+01
    -10.577  0.1100E-12  0.2000E+01
    -10.504  0.5144E-11  0.2000E+01
    -10.432  0.1883E-09  0.2000E+01
    -10.359  0.5387E-08  0.2000E+01
    -10.287  0.1205E-06  0.2000E+01
    -10.214  0.2108E-05  0.2000E+01
    -10.141  0.2887E-04  0.2000E+01
    -10.069  0.3098E-03  0.2000E+01
     -9.996  0.2607E-02  0.2000E+01
     -9.924  0.1723E-01  0.2001E+01
     -9.851  0.8962E-01  0.2008E+01
     -9.779  0.3674E+00  0.2034E+01
     -9.706  0.1191E+01  0.2120E+01
     -9.634  0.3066E+01  0.2340E+01
     -9.561  0.6296E+01  0.2791E+01
     -9.488  0.1037E+02  0.3536E+01
     -9.416  0.1381E+02  0.4528E+01
     -9.343  0.1497E+02  0.5603E+01
     -9.271  0.1329E+02  0.6558E+01
     -9.198  0.9706E+01  0.7255E+01
     -9.126  0.5836E+01  0.7674E+01
     -9.053  0.2882E+01  0.7880E+01
     -8.980  0.1163E+01  0.7964E+01
     -8.908  0.3807E+00  0.7991E+01
     -8.835  0.1005E+00  0.7998E+01
     -8.763  0.2123E-01  0.8000E+01
     -8.690  0.3575E-02  0.8000E+01
     -8.618  0.4774E-03  0.8000E+01
     -8.545  0.5037E-04  0.8000E+01
     -8.473  0.4188E-05  0.8000E+01
     -8.400  0.2737E-06  0.8000E+01
     -8.327  0.1404E-07  0.8000E+01
     -8.255  0.5639E-09  0.8000E+01
     -8.182  0.1773E-10  0.8000E+01
     -8.110  0.4354E-12  0.8000E+01
     -8.037  0.8105E-14  0.8000E+01
     -7.965  0.0000E+00  0.8000E+01
     -7.892  0.0000E+00  0.8000E+01
     -7.820  0.0000E+00  0.8000E+01
     -7.747  0.0000E+00  0.8000E+01
     -7.674  0.0000E+00  0.8000E+01
     -7.602  0.0000E+00  0.8000E+01
     -7.529  0.0000E+00  0.8000E+01
     -7.457  0.0000E+00  0.8000E+01
     -7.384  0.0000E+00  0.8000E+01
     -7.312  0.0000E+00  0.8000E+01
     -7.239  0.0000E+00  0.8000E+01
     -7.167  0.0000E+00  0.8000E+01
     -7.094  0.0000E+00  0.8000E+01
     -7.021  0.0000E+00  0.8000E+01
     -6.949  0.0000E+00  0.8000E+01
     -6.876  0.0000E+00  0.8000E+01
     -6.804  0.0000E+00  0.8000E+01
     -6.731  0.0000E+00  0.8000E+01
     -6.659  0.0000E+00  0.8000E+01
     -6.586  0.0000E+00  0.8000E+01
     -6.514  0.0000E+00  0.8000E+01
     -6.441  0.0000E+00  0.8000E+01
     -6.368  0.0000E+00  0.8000E+01
     -6.296  0.0000E+00  0.8000E+01
     -6.223  0.0000E+00  0.8000E+01
     -6.151  0.0000E+00  0.8000E+01
     -6.078  0.0000E+00  0.8000E+01
     -6.006  0.0000E+00  0.8000E+01
     -5.933  0.0000E+00  0.8000E+01
     -5.861  0.0000E+00  0.8000E+01
     -5.788  0.0000E+00  0.8000E+01
     -5.715  0.0000E+00  0.8000E+01
     -5.643  0.0000E+00  0.8000E+01
     -5.570  0.0000E+00  0.8000E+01
     -5.498  0.0000E+00  0.8000E+01
     -5.425  0.0000E+00  0.8000E+01
     -5.353  0.0000E+00  0.8000E+01
     -5.280  0.0000E+00  0.8000E+01
     -5.208  0.0000E+00  0.8000E+01
     -5.135  0.0000E+00  0.8000E+01
     -5.062  0.0000E+00  0.8000E+01
     -4.990  0.0000E+00  0.8000E+01
     -4.917  0.0000E+00  0.8000E+01
     -4.845  0.0000E+00  0.8000E+01
     -4.772  0.0000E+00  0.8000E+01
     -4.700  0.0000E+00  0.8000E+01
     -4.627  0.0000E+00  0.8000E+01
     -4.555  0.0000E+00  0.8000E+01
     -4.482  0.0000E+00  0.8000E+01
     -4.409  0.0000E+00  0.8000E+01
     -4.337  0.0000E+00  0.8000E+01
     -4.264  0.0000E+00  0.8000E+01
     -4.192  0.0000E+00  0.8000E+01
     -4.119  0.0000E+00  0.8000E+01
     -4.047  0.0000E+00  0.8000E+01
     -3.974  0.0000E+00  0.8000E+01
     -3.902  0.0000E+00  0.8000E+01
     -3.829  0.0000E+00  0.8000E+01
     -3.756  0.0000E+00  0.8000E+01
     -3.684  0.0000E+00  0.8000E+01
     -3.611  0.0000E+00  0.8000E+01
     -3.539  0.0000E+00  0.8000E+01
     -3.466  0.0000E+00  0.8000E+01
     -3.394  0.0000E+00  0.8000E+01
     -3.321  0.0000E+00  0.8000E+01
     -3.249  0.0000E+00  0.8000E+01
     -3.176  0.0000E+00  0.8000E+01
     -3.103  0.0000E+00  0.8000E+01
     -3.031  0.0000E+00  0.8000E+01
     -2.958  0.0000E+00  0.8000E+01
     -2.886  0.0000E+00  0.8000E+01
     -2.813  0.0000E+00  0.8000E+01
     -2.741  0.0000E+00  0.8000E+01
     -2.668  0.0000E+00  0.8000E+01
     -2.596  0.0000E+00  0.8000E+01
     -2.523  0.0000E+00  0.8000E+01
     -2.450  0.0000E+00  0.8000E+01
     -2.378  0.0000E+00  0.8000E+01
     -2.305  0.0000E+00  0.8000E+01
     -2.233  0.0000E+00  0.8000E+01
     -2.160  0.0000E+00  0.8000E+01
     -2.088  0.0000E+00  0.8000E+01
     -2.015  0.0000E+00  0.8000E+01
     -1.943  0.0000E+00  0.8000E+01
     -1.870  0.0000E+00  0.8000E+01
     -1.797  0.0000E+00  0.8000E+01
     -1.725  0.0000E+00  0.8000E+01
     -1.652  0.0000E+00  0.8000E+01
     -1.580  0.2729E-15  0.8000E+01
     -1.507  0.2535E-13  0.8000E+01
     -1.435  0.1231E-11  0.8000E+01
     -1.362  0.4692E-10  0.8000E+01
     -1.290  0.1397E-08  0.8000E+01
     -1.217  0.3251E-07  0.8000E+01
     -1.144  0.5918E-06  0.8000E+01
     -1.072  0.8433E-05  0.8000E+01
     -0.999  0.9414E-04  0.8000E+01
     -0.927  0.8242E-03  0.8000E+01
     -0.854  0.5666E-02  0.8000E+01
     -0.782  0.3062E-01  0.8003E+01
     -0.709  0.1302E+00  0.8012E+01
     -0.637  0.4364E+00  0.8043E+01
     -0.564  0.1154E+01  0.8126E+01
     -0.491  0.2408E+01  0.8298E+01
     -0.419  0.3970E+01  0.8583E+01
     -0.346  0.5170E+01  0.8954E+01
     -0.274  0.5318E+01  0.9336E+01
     -0.201  0.4315E+01  0.9646E+01
     -0.129  0.2760E+01  0.9845E+01
     -0.056  0.1390E+01  0.9945E+01
      0.016  0.5551E+00  0.9985E+01
      0.089  0.2037E+00  0.9999E+01
      0.162  0.1921E+00  0.1001E+02
      0.234  0.5502E+00  0.1005E+02
      0.307  0.1568E+01  0.1016E+02
      0.379  0.3667E+01  0.1043E+02
      0.452  0.7007E+01  0.1093E+02
      0.524  0.1100E+02  0.1172E+02
      0.597  0.1420E+02  0.1274E+02
      0.669  0.1505E+02  0.1382E+02
      0.742  0.1298E+02  0.1475E+02
      0.815  0.9045E+01  0.1540E+02
      0.887  0.5041E+01  0.1576E+02
      0.960  0.2231E+01  0.1592E+02
      1.032  0.7792E+00  0.1598E+02
      1.105  0.2139E+00  0.1600E+02
      1.177  0.4597E-01  0.1600E+02
      1.250  0.7720E-02  0.1600E+02
      1.322  0.1011E-02  0.1600E+02
      1.395  0.1032E-03  0.1600E+02
      1.468  0.8197E-05  0.1600E+02
      1.540  0.5062E-06  0.1600E+02
      1.613  0.2429E-07  0.1600E+02
      1.685  0.9053E-09  0.1600E+02
      1.758  0.2619E-10  0.1600E+02
      1.830  0.5892E-12  0.1600E+02
      1.903  0.9405E-14  0.1600E+02
      1.975  0.0000E+00  0.1600E+02
      2.048  0.0000E+00  0.1600E+02
      2.121  0.0000E+00  0.1600E+02
      2.193  0.0000E+00  0.1600E+02
      2.266  0.0000E+00  0.1600E+02
      2.338  0.0000E+00  0.1600E+02
      2.411  0.0000E+00  0.1600E+02
      2.483  0.0000E+00  0.1600E+02
      2.556  0.0000E+00  0.1600E+02
      2.629  0.0000E+00  0.1600E+02
      2.701  0.0000E+00  0.1600E+02
      2.70193076    -19.08581104  301     -8.40967571      1.00000000
    -19.086  0.0000E+00  0.0000E+00
    -19.013  0.0000E+00  0.0000E+00
    -18.941  0.0000E+00  0.0000E+00
    -18.868  0.0000E+00  0.0000E+00
    -18.795  0.0000E+00  0.0000E+00
    -18.723  0.0000E+00  0.0000E+00
    -18.650  0.0000E+00  0.0000E+00
    -18.577  0.0000E+00  0.0000E+00
    -18.505  0.0000E+00  0.0000E+00
    -18.432  0.0000E+00  0.0000E+00
    -18.360  0.0000E+00  0.0000E+00
    -18.287  0.0000E+00  0.0000E+00
    -18.214  0.1987E-14  0.1443E-15
    -18.142  0.1117E-12  0.8255E-14
    -18.069  0.4823E-11  0.3585E-12
    -17.996  0.1605E-09  0.1202E-10
    -17.924  0.4120E-08  0.3112E-09
    -17.851  0.8152E-07  0.6232E-08
    -17.779  0.1244E-05  0.9658E-07
    -17.706  0.1465E-04  0.1160E-05
    -17.633  0.1330E-03  0.1082E-04
    -17.561  0.9326E-03  0.7855E-04
    -17.488  0.5047E-02  0.4451E-03
    -17.415  0.2109E-01  0.1977E-02
    -17.343  0.6804E-01  0.6918E-02
    -17.270  0.1696E+00  0.1923E-01
    -17.198  0.3265E+00  0.4294E-01
    -17.125  0.4856E+00  0.7821E-01
    -17.052  0.5579E+00  0.1187E+00
    -16.980  0.4953E+00  0.1547E+00
    -16.907  0.3397E+00  0.1794E+00
    -16.834  0.1800E+00  0.1925E+00
    -16.762  0.7369E-01  0.1978E+00
    -16.689  0.2330E-01  0.1995E+00
    -16.617  0.5688E-02  0.1999E+00
    -16.544  0.1072E-02  0.2000E+00
    -16.471  0.1560E-03  0.2000E+00
    -16.399  0.1753E-04  0.2000E+00
    -16.326  0.1519E-05  0.2000E+00
    -16.253  0.1016E-06  0.2000E+00
    -16.181  0.5236E-08  0.2000E+00
    -16.108  0.2082E-09  0.2000E+00
    -16.036  0.6381E-11  0.2000E+00
    -15.963  0.1507E-12  0.2000E+00
    -15.890  0.2752E-14  0.2000E+00
    -15.818  0.0000E+00  0.2000E+00
    -15.745  0.0000E+00  0.2000E+00
    -15.672  0.0000E+00  0.2000E+00
    -15.600  0.0000E+00  0.2000E+00
    -15.527  0.0000E+00  0.2000E+00
    -15.455  0.0000E+00  0.2000E+00
    -15.382  0.0000E+00  0.2000E+00
    -15.309  0.0000E+00  0.2000E+00
    -15.237  0.0000E+00  0.2000E+00
    -15.164  0.0000E+00  0.2000E+00
    -15.091  0.0000E+00  0.2000E+00
    -15.019  0.0000E+00  0.2000E+00
    -14.946  0.0000E+00  0.2000E+00
    -14.874  0.0000E+00  0.2000E+00
    -14.801  0.0000E+00  0.2000E+00
    -14.728  0.0000E+00  0.2000E+00
    -14.656  0.0000E+00  0.2000E+00
    -14.583  0.0000E+00  0.2000E+00
    -14.510  0.0000E+00  0.2000E+00
    -14.438  0.0000E+00  0.2000E+00
    -14.365  0.0000E+00  0.2000E+00
    -14.293  0.0000E+00  0.2000E+00
    -14.220  0.0000E+00  0.2000E+00
    -14.147  0.0000E+00  0.2000E+00
    -14.075  0.0000E+00  0.2000E+00
    -14.002  0.0000E+00  0.2000E+00
    -13.929  0.0000E+00  0.2000E+00
    -13.857  0.0000E+00  0.2000E+00
    -13.784  0.0000E+00  0.2000E+00
    -13.712  0.0000E+00  0.2000E+00
    -13.639  0.0000E+00  0.2000E+00
    -13.566  0.0000E+00  0.2000E+00
    -13.494  0.0000E+00  0.2000E+00
    -13.421  0.0000E+00  0.2000E+00
    -13.348  0.0000E+00  0.2000E+00
    -13.276  0.0000E+00  0.2000E+00
    -13.203  0.0000E+00  0.2000E+00
    -13.130  0.0000E+00  0.2000E+00
    -13.058  0.0000E+00  0.2000E+00
    -12.985  0.0000E+00  0.2000E+00
    -12.913  0.0000E+00  0.2000E+00
    -12.840  0.0000E+00  0.2000E+00
    -12.767  0.0000E+00  0.2000E+00
    -12.695  0.0000E+00  0.2000E+00
    -12.622  0.0000E+00  0.2000E+00
    -12.549  0.0000E+00  0.2000E+00
    -12.477  0.0000E+00  0.2000E+00
    -12.404  0.0000E+00  0.2000E+00
    -12.332  0.0000E+00  0.2000E+00
    -12.259  0.0000E+00  0.2000E+00
    -12.186  0.0000E+00  0.2000E+00
    -12.114  0.0000E+00  0.2000E+00
    -12.041  0.0000E+00  0.2000E+00
    -11.968  0.0000E+00  0.2000E+00
    -11.896  0.0000E+00  0.2000E+00
    -11.823  0.0000E+00  0.2000E+00
    -11.751  0.0000E+00  0.2000E+00
    -11.678  0.0000E+00  0.2000E+00
    -11.605  0.0000E+00  0.2000E+00
    -11.533  0.0000E+00  0.2000E+00
    -11.460  0.0000E+00  0.2000E+00
    -11.387  0.0000E+00  0.2000E+00
    -11.315  0.0000E+00  0.2000E+00
    -11.242  0.0000E+00  0.2000E+00
    -11.170  0.0000E+00  0.2000E+00
    -11.097  0.0000E+00  0.2000E+00
    -11.024  0.0000E+00  0.2000E+00
    -10.952  0.0000E+00  0.2000E+00
    -10.879  0.0000E+00  0.2000E+00
    -10.806  0.0000E+00  0.2000E+00
    -10.734  0.0000E+00  0.2000E+00
    -10.661  0.0000E+00  0.2000E+00
    -10.589  0.9172E-15  0.2000E+00
    -10.516  0.5125E-13  0.2000E+00
    -10.443  0.2369E-11  0.2000E+00
    -10.371  0.8431E-10  0.2000E+00
    -10.298  0.2320E-08  0.2000E+00
    -10.225  0.4943E-07  0.2000E+00
    -10.153  0.8160E-06  0.2000E+00
    -10.080  0.1045E-04  0.2000E+00
    -10.008  0.1041E-03  0.2000E+00
     -9.935  0.8067E-03  0.2001E+00
     -9.862  0.4878E-02  0.2004E+00
     -9.790  0.2305E-01  0.2021E+00
     -9.717  0.8535E-01  0.2083E+00
     -9.644  0.2480E+00  0.2263E+00
     -9.572  0.5666E+00  0.2675E+00
     -9.499  0.1019E+01  0.3415E+00
     -9.427  0.1444E+01  0.4463E+00
     -9.354  0.1612E+01  0.5634E+00
     -9.281  0.1417E+01  0.6663E+00
     -9.209  0.9805E+00  0.7375E+00
     -9.136  0.5329E+00  0.7762E+00
     -9.063  0.2271E+00  0.7927E+00
     -8.991  0.7575E-01  0.7982E+00
     -8.918  0.1974E-01  0.7997E+00
     -8.846  0.4013E-02  0.7999E+00
     -8.773  0.6351E-03  0.8000E+00
     -8.700  0.7815E-04  0.8000E+00
     -8.628  0.7467E-05  0.8000E+00
     -8.555  0.5533E-06  0.8000E+00
     -8.482  0.3177E-07  0.8000E+00
     -8.410  0.1412E-08  0.8000E+00
     -8.337  0.4854E-10  0.8000E+00
     -8.265  0.1290E-11  0.8000E+00
     -8.192  0.2645E-13  0.8000E+00
     -8.119  0.4586E-15  0.8000E+00
     -8.047  0.0000E+00  0.8000E+00
     -7.974  0.0000E+00  0.8000E+00
     -7.901  0.0000E+00  0.8000E+00
     -7.829  0.0000E+00  0.8000E+00
     -7.756  0.0000E+00  0.8000E+00
     -7.684  0.0000E+00  0.8000E+00
     -7.611  0.0000E+00  0.8000E+00
     -7.538  0.0000E+00  0.8000E+00
     -7.466  0.0000E+00  0.8000E+00
     -7.393  0.0000E+00  0.8000E+00
     -7.320  0.0000E+00  0.8000E+00
     -7.248  0.0000E+00  0.8000E+00
     -7.175  0.0000E+00  0.8000E+00
     -7.103  0.0000E+00  0.8000E+00
     -7.030  0.0000E+00  0.8000E+00
     -6.957  0.0000E+00  0.8000E+00
     -6.885  0.0000E+00  0.8000E+00
     -6.812  0.0000E+00  0.8000E+00
     -6.739  0.0000E+00  0.8000E+00
     -6.667  0.0000E+00  0.8000E+00
     -6.594  0.0000E+00  0.8000E+00
     -6.522  0.0000E+00  0.8000E+00
     -6.449  0.0000E+00  0.8000E+00
     -6.376  0.0000E+00  0.8000E+00
     -6.304  0.0000E+00  0.8000E+00
     -6.231  0.0000E+00  0.8000E+00
     -6.158  0.0000E+00  0.8000E+00
     -6.086  0.0000E+00  0.8000E+00
     -6.013  0.0000E+00  0.8000E+00
     -5.941  0.0000E+00  0.8000E+00
     -5.868  0.0000E+00  0.8000E+00
     -5.795  0.0000E+00  0.8000E+00
     -5.723  0.0000E+00  0.8000E+00
     -5.650  0.0000E+00  0.8000E+00
     -5.577  0.0000E+00  0.8000E+00
     -5.505  0.0000E+00  0.8000E+00
     -5.432  0.0000E+00  0.8000E+00
     -5.360  0.0000E+00  0.8000E+00
     -5.287  0.0000E+00  0.8000E+00
     -5.214  0.0000E+00  0.8000E+00
     -5.142  0.0000E+00  0.8000E+00
     -5.069  0.0000E+00  0.8000E+00
     -4.996  0.0000E+00  0.8000E+00
     -4.924  0.0000E+00  0.8000E+00
     -4.851  0.0000E+00  0.8000E+00
     -4.779  0.0000E+00  0.8000E+00
     -4.706  0.0000E+00  0.8000E+00
     -4.633  0.0000E+00  0.8000E+00
     -4.561  0.0000E+00  0.8000E+00
     -4.488  0.0000E+00  0.8000E+00
     -4.415  0.0000E+00  0.8000E+00
     -4.343  0.0000E+00  0.8000E+00
     -4.270  0.0000E+00  0.8000E+00
     -4.198  0.0000E+00  0.8000E+00
     -4.125  0.0000E+00  0.8000E+00
     -4.052  0.0000E+00  0.8000E+00
     -3.980  0.0000E+00  0.8000E+00
     -3.907  0.0000E+00  0.8000E+00
     -3.834  0.0000E+00  0.8000E+00
     -3.762  0.0000E+00  0.8000E+00
     -3.689  0.0000E+00  0.8000E+00
     -3.617  0.0000E+00  0.8000E+00
     -3.544  0.0000E+00  0.8000E+00
     -3.471  0.0000E+00  0.8000E+00
     -3.399  0.0000E+00  0.8000E+00
     -3.326  0.0000E+00  0.8000E+00
     -3.253  0.0000E+00  0.8000E+00
     -3.181  0.0000E+00  0.8000E+00
     -3.108  0.0000E+00  0.8000E+00
     -3.036  0.0000E+00  0.8000E+00
     -2.963  0.0000E+00  0.8000E+00
     -2.890  0.0000E+00  0.8000E+00
     -2.818  0.0000E+00  0.8000E+00
     -2.745  0.0000E+00  0.8000E+00
     -2.672  0.0000E+00  0.8000E+00
     -2.600  0.0000E+00  0.8000E+00
     -2.527  0.0000E+00  0.8000E+00
     -2.455  0.0000E+00  0.8000E+00
     -2.382  0.0000E+00  0.8000E+00
     -2.309  0.0000E+00  0.8000E+00
     -2.237  0.0000E+00  0.8000E+00
     -2.164  0.0000E+00  0.8000E+00
     -2.091  0.0000E+00  0.8000E+00
     -2.019  0.0000E+00  0.8000E+00
     -1.946  0.0000E+00  0.8000E+00
     -1.873  0.0000E+00  0.8000E+00
     -1.801  0.0000E+00  0.8000E+00
     -1.728  0.0000E+00  0.8000E+00
     -1.656  0.0000E+00  0.8000E+00
     -1.583  0.0000E+00  0.8000E+00
     -1.510  0.0000E+00  0.8000E+00
     -1.438  0.4204E-15  0.8000E+00
     -1.365  0.2591E-13  0.8000E+00
     -1.292  0.1230E-11  0.8000E+00
     -1.220  0.4506E-10  0.8000E+00
     -1.147  0.1272E-08  0.8000E+00
     -1.075  0.2771E-07  0.8000E+00
     -1.002  0.4653E-06  0.8000E+00
     -0.929  0.6028E-05  0.8000E+00
     -0.857  0.6027E-04  0.8000E+00
     -0.784  0.4650E-03  0.8000E+00
     -0.711  0.2770E-02  0.8002E+00
     -0.639  0.1274E-01  0.8012E+00
     -0.566  0.4526E-01  0.8045E+00
     -0.494  0.1242E+00  0.8135E+00
     -0.421  0.2633E+00  0.8326E+00
     -0.348  0.4312E+00  0.8639E+00
     -0.276  0.5457E+00  0.9035E+00
     -0.203  0.5337E+00  0.9423E+00
     -0.130  0.4033E+00  0.9716E+00
     -0.058  0.2355E+00  0.9887E+00
      0.015  0.1066E+00  0.9964E+00
      0.087  0.3942E-01  0.9993E+00
      0.160  0.2155E-01  0.1001E+01
      0.233  0.4599E-01  0.1004E+01
      0.305  0.1321E+00  0.1014E+01
      0.378  0.3166E+00  0.1037E+01
      0.451  0.6179E+00  0.1082E+01
      0.523  0.9938E+00  0.1154E+01
      0.596  0.1328E+01  0.1250E+01
      0.668  0.1473E+01  0.1357E+01
      0.741  0.1344E+01  0.1455E+01
      0.814  0.9946E+00  0.1527E+01
      0.886  0.5894E+00  0.1570E+01
      0.959  0.2764E+00  0.1590E+01
      1.032  0.1018E+00  0.1597E+01
      1.104  0.2931E-01  0.1599E+01
      1.177  0.6569E-02  0.1600E+01
      1.249  0.1144E-02  0.1600E+01
      1.322  0.1545E-03  0.1600E+01
      1.395  0.1617E-04  0.1600E+01
      1.467  0.1310E-05  0.1600E+01
      1.540  0.8220E-07  0.1600E+01
      1.613  0.3988E-08  0.1600E+01
      1.685  0.1496E-09  0.1600E+01
      1.758  0.4336E-11  0.1600E+01
      1.830  0.9707E-13  0.1600E+01
      1.903  0.1682E-14  0.1600E+01
      1.976  0.0000E+00  0.1600E+01
      2.048  0.0000E+00  0.1600E+01
      2.121  0.0000E+00  0.1600E+01
      2.194  0.0000E+00  0.1600E+01
      2.266  0.0000E+00  0.1600E+01
      2.339  0.0000E+00  0.1600E+01
      2.411  0.0000E+00  0.1600E+01
      2.484  0.0000E+00  0.1600E+01
      2.557  0.0000E+00  0.1600E+01
      2.629  0.0000E+00  0.1600E+01
      2.702  0.0000E+00  0.1600E+01
