    5    5   10    1
  0.2137541E+03  0.1026279E-08  0.1019003E-08  0.1022622E-08  0.5000000E-15
  1.000000000000000E-004
  CAR 
 unknown system                          
      8      4      8
 
  0.2500000E+00  0.2500000E+00  0.2500000E+00  0.2500000E+00
    1      -17.085811   1.000000
    2       -9.444971   1.000000
    3       -9.386239   1.000000
    4       -9.349120   1.000000
    5       -0.284088   0.000000
    6        0.531108   0.000000
    7        0.669366   0.000000
    8        0.698603   0.000000
 
 -0.2500000E+00  0.2500000E+00  0.2500000E+00  0.2500000E+00
    1      -17.085802   1.000000
    2       -9.444904   1.000000
    3       -9.386263   1.000000
    4       -9.349163   1.000000
    5       -0.282048   0.000000
    6        0.524723   0.000000
    7        0.657206   0.000000
    8        0.698001   0.000000
 
  0.2500000E+00 -0.2500000E+00  0.2500000E+00  0.2500000E+00
    1      -17.085792   1.000000
    2       -9.445070   1.000000
    3       -9.386276   1.000000
    4       -9.349193   1.000000
    5       -0.285495   0.000000
    6        0.532374   0.000000
    7        0.671532   0.000000
    8        0.701931   0.000000
 
 -0.2500000E+00 -0.2500000E+00  0.2500000E+00  0.2500000E+00
    1      -17.085785   1.000000
    2       -9.444949   1.000000
    3       -9.386265   1.000000
    4       -9.349141   1.000000
    5       -0.276425   0.000000
    6        0.512657   0.000000
    7        0.652924   0.000000
    8        0.680585   0.000000
