 vasp.5.4.4.18Apr17-6-g9f103f2a35 (build Nov 25 2021 15:25:00) complex          
  
 executed on             LinuxIFC date 2022.02.21  10:16:52
 running on   16 total cores
 distrk:  each k-point on   16 cores,    1 groups
 distr:  one band on NCORES_PER_BAND=   4 cores,    4 groups


--------------------------------------------------------------------------------------------------------


 INCAR:
 POTCAR:    PAW_PBE H 15Jun2001                   
 POTCAR:    PAW_PBE C 08Apr2002                   
 POTCAR:    PAW_PBE H 15Jun2001                   
   VRHFIN =H: ultrasoft test                                                    
   LEXCH  = PE                                                                  
   EATOM  =    12.4884 eV,    0.9179 Ry                                         
                                                                                
   TITEL  = PAW_PBE H 15Jun2001                                                 
   LULTRA =        F    use ultrasoft PP ?                                      
   IUNSCR =        0    unscreen: 0-lin 1-nonlin 2-no                           
   RPACOR =    0.000    partial core radius                                     
   POMASS =    1.000; ZVAL   =    1.000    mass and valenz                      
   RCORE  =    1.100    outmost cutoff radius                                   
   RWIGS  =    0.700; RWIGS  =    0.370    wigner-seitz radius (au A)           
   ENMAX  =  250.000; ENMIN  =  200.000 eV                                      
   RCLOC  =    0.701    cutoff for local pot                                    
   LCOR   =        T    correct aug charges                                     
   LPAW   =        T    paw PP                                                  
   EAUG   =  400.000                                                            
   RMAX   =    1.123    core radius for proj-oper                               
   RAUG   =    1.200    factor for augmentation sphere                          
   RDEP   =    1.112    radius for radial grids                                 
   RDEPT  =    0.926    core radius for aug-charge                              
                                                                                
   Atomic configuration                                                         
    2 entries                                                                   
     n  l   j            E        occ.                                          
     1  0  0.50        -6.4927   1.0000                                         
     2  1  0.50        -3.4015   0.0000                                         
   Description                                                                  
     l       E           TYP  RCUT    TYP  RCUT                                 
     0     -6.4927494     23  1.100                                             
     0      6.8029130     23  1.100                                             
     1     -4.0817478     23  1.100                                             
  local pseudopotential read in
  atomic valenz-charges read in
  non local Contribution for L=           0  read in
    real space projection operators read in
  non local Contribution for L=           0  read in
    real space projection operators read in
  non local Contribution for L=           1  read in
    real space projection operators read in
    PAW grid and wavefunctions read in
 
   number of l-projection  operators is LMAX  =           3
   number of lm-projection operators is LMMAX =           5
 
 POTCAR:    PAW_PBE C 08Apr2002                   
   VRHFIN =C: s2p2                                                              
   LEXCH  = PE                                                                  
   EATOM  =   147.1560 eV,   10.8157 Ry                                         
                                                                                
   TITEL  = PAW_PBE C 08Apr2002                                                 
   LULTRA =        F    use ultrasoft PP ?                                      
   IUNSCR =        1    unscreen: 0-lin 1-nonlin 2-no                           
   RPACOR =    1.200    partial core radius                                     
   POMASS =   12.011; ZVAL   =    4.000    mass and valenz                      
   RCORE  =    1.500    outmost cutoff radius                                   
   RWIGS  =    1.630; RWIGS  =    0.863    wigner-seitz radius (au A)           
   ENMAX  =  400.000; ENMIN  =  300.000 eV                                      
   ICORE  =        2    local potential                                         
   LCOR   =        T    correct aug charges                                     
   LPAW   =        T    paw PP                                                  
   EAUG   =  644.873                                                            
   DEXC   =    0.000                                                            
   RMAX   =    1.529    core radius for proj-oper                               
   RAUG   =    1.300    factor for augmentation sphere                          
   RDEP   =    1.501    radius for radial grids                                 
   RDEPT  =    1.300    core radius for aug-charge                              
                                                                                
   Atomic configuration                                                         
    4 entries                                                                   
     n  l   j            E        occ.                                          
     1  0  0.50      -273.3789   2.0000                                         
     2  0  0.50       -13.7508   2.0000                                         
     2  1  0.50        -5.2854   2.0000                                         
     3  2  1.50        -5.4423   0.0000                                         
   Description                                                                  
     l       E           TYP  RCUT    TYP  RCUT                                 
     0    -13.7508458     23  1.200                                             
     0     -8.2022199     23  1.200                                             
     1     -5.2854383     23  1.500                                             
     1     34.0145650     23  1.500                                             
     2     -5.4423304      7  1.500                                             
  local pseudopotential read in
  partial core-charges read in
  partial kinetic energy density read in
  atomic valenz-charges read in
  non local Contribution for L=           0  read in
    real space projection operators read in
  non local Contribution for L=           0  read in
    real space projection operators read in
  non local Contribution for L=           1  read in
    real space projection operators read in
  non local Contribution for L=           1  read in
    real space projection operators read in
    PAW grid and wavefunctions read in
 
   number of l-projection  operators is LMAX  =           4
   number of lm-projection operators is LMMAX =           8
 
  PAW_PBE H 15Jun2001                   :
 energy of atom  1       EATOM=  -12.4884
 kinetic energy error for atom=    0.0098 (will be added to EATOM!!)
  PAW_PBE C 08Apr2002                   :
 energy of atom  2       EATOM= -147.1560
 kinetic energy error for atom=    0.0288 (will be added to EATOM!!)
 
 
 POSCAR:  H  C                                   
  positions in cartesian coordinates
  No initial velocities read in
 exchange correlation table for  LEXCH =        8
   RHO(1)=    0.500       N(1)  =     2000
   RHO(2)=  100.500       N(2)  =     4000

 VTST: version 3.2, (02/03/18)

 CHAIN: initializing optimizer
 
 OPT: Using VASP Dynamics algorithm
 CHAIN: Read ICHAIN            0
 
 POSCAR:  H  C                                   
  positions in cartesian coordinates
  No initial velocities read in
 


--------------------------------------------------------------------------------------------------------


 ion  position               nearest neighbor table
   1  0.538  0.408  0.360-   5 1.13
   2  0.394  0.480  0.438-   5 1.14
   3  0.552  0.566  0.443-   5 1.11
   4  0.528  0.416  0.539-   5 1.12
   5  0.504  0.467  0.446-   3 1.11   4 1.12   1 1.13   2 1.14
 

IMPORTANT INFORMATION: All symmetrisations will be switched off!
NOSYMM: (Re-)initialisation of all symmetry stuff for point group C_1.

 
 

Automatic generation of k-mesh.
 generate k-points for:    2    2    2
Space group operators:
 irot       det(A)        alpha          n_x          n_y          n_z        tau_x        tau_y        tau_z
    1     1.000000     0.000000     1.000000     0.000000     0.000000     0.000000     0.000000     0.000000
 
 Subroutine IBZKPT returns following result:
 ===========================================
 
 Found      4 irreducible k-points:
 
 Following reciprocal coordinates:
            Coordinates               Weight
  0.250000  0.250000  0.250000      2.000000
 -0.250000  0.250000  0.250000      2.000000
  0.250000 -0.250000  0.250000      2.000000
 -0.250000 -0.250000  0.250000      2.000000
 
 Following cartesian coordinates:
            Coordinates               Weight
  0.024360  0.024953  0.023490      2.000000
 -0.024360  0.024122  0.024920      2.000000
  0.024360 -0.024122  0.023997      2.000000
 -0.024360 -0.024953  0.025428      2.000000
 


--------------------------------------------------------------------------------------------------------




 Dimension of arrays:
   k-points           NKPTS =      4   k-points in BZ     NKDIM =      4   number of bands    NBANDS=      8
   number of dos      NEDOS =    301   number of ions     NIONS =      5
   non local maximal  LDIM  =      4   non local SUM 2l+1 LMDIM =      8
   total plane-waves  NPLWV = 343000
   max r-space proj   IRMAX =      1   max aug-charges    IRDMAX=   3986
   dimension x,y,z NGX =    70 NGY =   70 NGZ =   70
   dimension x,y,z NGXF=   140 NGYF=  140 NGZF=  140
   support grid    NGXF=   140 NGYF=  140 NGZF=  140
   ions per type =               4   1
   NGX,Y,Z   is equivalent  to a cutoff of  11.34, 11.42, 11.38 a.u.
   NGXF,Y,Z  is equivalent  to a cutoff of  22.68, 22.84, 22.76 a.u.

 SYSTEM =  unknown system                          
 POSCAR =   H  C                                   

 Startparameter for this run:
   NWRITE =      2    write-flag & timer
   PREC   = a         normal or accurate (medium, high low for compatibility)
   ISTART =      0    job   : 0-new  1-cont  2-samecut
   ICHARG =      2    charge: 1-file 2-atom 10-const
   ISPIN  =      1    spin polarized calculation?
   LNONCOLLINEAR =      F non collinear calculations
   LSORBIT =      F    spin-orbit coupling
   INIWAV =      1    electr: 0-lowe 1-rand  2-diag
   LASPH  =      F    aspherical Exc in radial PAW
   METAGGA=      F    non-selfconsistent MetaGGA calc.

 Electronic Relaxation 1
   ENCUT  =  400.0 eV  29.40 Ry    5.42 a.u.  16.74 16.62 16.68*2*pi/ulx,y,z
   ENINI  =  400.0     initial cutoff
   ENAUG  =  644.9 eV  augmentation charge cutoff
   NELM   =    120;   NELMIN=  4; NELMDL= -5     # of ELM steps 
   EDIFF  = 0.1E-05   stopping-criterion for ELM
   LREAL  =      F    real-space projection
   NLSPLINE    = F    spline interpolate recip. space projectors
   LCOMPAT=      F    compatible to vasp.4.4
   GGA_COMPAT  = T    GGA compatible to vasp.4.4-vasp.4.6
   LMAXPAW     = -100 max onsite density
   LMAXMIX     =    2 max onsite mixed and CHGCAR
   VOSKOWN=      0    Vosko Wilk Nusair interpolation
   ROPT   =    0.00000   0.00000
 Ionic relaxation
   EDIFFG = 0.1E-04   stopping-criterion for IOM
   NSW    =     10    number of steps for IOM
   NBLOCK =      1;   KBLOCK =     10    inner block; outer block 
   IBRION =      0    ionic relax: 0-MD 1-quasi-New 2-CG
   NFREE  =      0    steps in history (QN), initial steepest desc. (CG)
   ISIF   =      2    stress and relaxation
   IWAVPR =     12    prediction:  0-non 1-charg 2-wave 3-comb
   ISYM   =      0    0-nonsym 1-usesym 2-fastsym
   LCORR  =      T    Harris-Foulkes like correction to forces

   POTIM  = 0.5000    time-step for ionic-motion
   TEIN   =    0.0    initial temperature
   TEBEG  =    0.0;   TEEND  =   0.0 temperature during run
   SMASS  =  -3.00    Nose mass-parameter (am)
   estimated Nose-frequenzy (Omega)   =  0.10E-29 period in steps =****** mass=  -0.241E-26a.u.
   SCALEE = 1.0000    scale energy and forces
   NPACO  =    256;   APACO  = 16.0  distance and # of slots for P.C.
   PSTRESS=    0.0 pullay stress

  Mass of Ions in am
   POMASS =   1.00 12.01
  Ionic Valenz
   ZVAL   =   1.00  4.00
  Atomic Wigner-Seitz radii
   RWIGS  =  -1.00 -1.00
  virtual crystal weights 
   VCA    =   1.00  1.00
   NELECT =       8.0000    total number of electrons
   NUPDOWN=      -1.0000    fix difference up-down

 DOS related values:
   EMIN   =  10.00;   EMAX   =-10.00  energy-range for DOS
   EFERMI =   0.00
   ISMEAR =     0;   SIGMA  =   0.20  broadening in eV -4-tet -1-fermi 0-gaus

 Electronic relaxation 2 (details)
   IALGO  =     68    algorithm
   LDIAG  =      T    sub-space diagonalisation (order eigenvalues)
   LSUBROT=      F    optimize rotation matrix (better conditioning)
   TURBO    =      0    0=normal 1=particle mesh
   IRESTART =      0    0=no restart 2=restart with 2 vectors
   NREBOOT  =      0    no. of reboots
   NMIN     =      0    reboot dimension
   EREF     =   0.00    reference energy to select bands
   IMIX   =      4    mixing-type and parameters
     AMIX     =   0.40;   BMIX     =  1.00
     AMIX_MAG =   1.60;   BMIX_MAG =  1.00
     AMIN     =   0.10
     WC   =   100.;   INIMIX=   1;  MIXPRE=   1;  MAXMIX= -45

 Intra band minimization:
   WEIMIN = 0.0010     energy-eigenvalue tresh-hold
   EBREAK =  0.31E-07  absolut break condition
   DEPER  =   0.30     relativ break condition  

   TIME   =   0.40     timestep for ELM

  volume/ion in A,a.u.               =     213.75      1442.48
  Fermi-wavevector in a.u.,A,eV,Ry     =   0.320241  0.605167  1.395334  0.102554
  Thomas-Fermi vector in A             =   1.206680
 
 Write flags
   LWAVE        =      F    write WAVECAR
   LDOWNSAMPLE  =      F    k-point downsampling of WAVECAR
   LCHARG       =      F    write CHGCAR
   LVTOT        =      F    write LOCPOT, total local potential
   LVHAR        =      F    write LOCPOT, Hartree potential only
   LELF         =      F    write electronic localiz. function (ELF)
   LORBIT       =      0    0 simple, 1 ext, 2 COOP (PROOUT), +10 PAW based schemes


 Dipole corrections
   LMONO  =      F    monopole corrections only (constant potential shift)
   LDIPOL =      F    correct potential (dipole corrections)
   IDIPOL =      0    1-x, 2-y, 3-z, 4-all directions 
   EPSILON=  1.0000000 bulk dielectric constant

 Exchange correlation treatment:
   GGA     =    --    GGA type
   LEXCH   =     8    internal setting for exchange type
   VOSKOWN=      0    Vosko Wilk Nusair interpolation
   LHFCALC =     F    Hartree Fock is set to
   LHFONE  =     F    Hartree Fock one center treatment
   AEXX    =    0.0000 exact exchange contribution

 Linear response parameters
   LEPSILON=     F    determine dielectric tensor
   LRPA    =     F    only Hartree local field effects (RPA)
   LNABLA  =     F    use nabla operator in PAW spheres
   LVEL    =     F    velocity operator in full k-point grid
   LINTERFAST=   F  fast interpolation
   KINTER  =     0    interpolate to denser k-point grid
   CSHIFT  =0.1000    complex shift for real part using Kramers Kronig
   OMEGAMAX=  -1.0    maximum frequency
   DEG_THRESHOLD= 0.2000000E-02 threshold for treating states as degnerate
   RTIME   =   -0.100 relaxation time in fs
  (WPLASMAI=    0.000 imaginary part of plasma frequency in eV, 0.658/RTIME)
   DFIELD  = 0.0000000 0.0000000 0.0000000 field for delta impulse in time
 
 Orbital magnetization related:
   ORBITALMAG=     F  switch on orbital magnetization
   LCHIMAG   =     F  perturbation theory with respect to B field
   DQ        =  0.001000  dq finite difference perturbation B field
   LLRAUG    =     F  two centre corrections for induced B field



--------------------------------------------------------------------------------------------------------


 molecular dynamics for ions
   using a microcanonical ensemble
 charge density and potential will be updated during run
 non-spin polarized calculation
 RMM-DIIS sequential band-by-band and
  variant of blocked Davidson during initial phase
 perform sub-space diagonalisation
    before iterative eigenvector-optimisation
 modified Broyden-mixing scheme, WC =      100.0
 initial mixing is a Kerker type mixing with AMIX =  0.4000 and BMIX =      1.0000
 Hartree-type preconditioning will be used
 using additional bands            4
 reciprocal scheme for non local part
 use partial core corrections
 calculate Harris-corrections to forces 
   (improved forces if not selfconsistent)
 use gradient corrections 
 use of overlap-Matrix (Vanderbilt PP)
 Gauss-broadening in eV      SIGMA  =   0.20


--------------------------------------------------------------------------------------------------------


  energy-cutoff  :      400.00
  volume of cell :     1068.77
      direct lattice vectors                 reciprocal lattice vectors
    10.262787087  0.000000000  0.000000000     0.097439418  0.001662593 -0.002861461
    -0.173845524 10.188546129  0.000000000     0.000000000  0.098149430 -0.001014640
     0.298362093  0.105664978 10.221317541     0.000000000  0.000000000  0.097834745

  length of vectors
    10.262787087 10.190029170 10.226217155     0.097495602  0.098154675  0.097834745


 
 k-points in units of 2pi/SCALE and weight: read from INCAR                         
   0.02435985  0.02495301  0.02348966       0.250
  -0.02435985  0.02412171  0.02492039       0.250
   0.02435985 -0.02412171  0.02399698       0.250
  -0.02435985 -0.02495301  0.02542771       0.250
 
 k-points in reciprocal lattice and weights: read from INCAR                         
   0.25000000  0.25000000  0.25000000       0.250
  -0.25000000  0.25000000  0.25000000       0.250
   0.25000000 -0.25000000  0.25000000       0.250
  -0.25000000 -0.25000000  0.25000000       0.250
 
 position of ions in fractional coordinates (direct lattice) 
   0.53848335  0.40751408  0.35996488
   0.39418635  0.47997450  0.43812483
   0.55236414  0.56582354  0.44265156
   0.52839424  0.41603004  0.53885573
   0.50380101  0.46723756  0.44578592
 
 position of ions in cartesian coordinates  (Angst):
   5.56289533  4.19001171  3.67931529
   4.09272901  4.93653673  4.47821301
   5.70250016  5.81169197  4.52448219
   5.51124670  4.29567942  5.50781552
   5.22218098  4.80757540  4.55651941
 


--------------------------------------------------------------------------------------------------------


 k-point  1 :   0.2500 0.2500 0.2500  plane waves:   19410
 k-point  2 :  -0.2500 0.2500 0.2500  plane waves:   19408
 k-point  3 :   0.2500-0.2500 0.2500  plane waves:   19419
 k-point  4 :  -0.2500-0.2500 0.2500  plane waves:   19405

 maximum and minimum number of plane-waves per node :      4879     4824

 maximum number of plane-waves:     19419
 maximum index in each direction: 
   IXMAX=   16   IYMAX=   16   IZMAX=   16
   IXMIN=  -16   IYMIN=  -16   IZMIN=  -16


 parallel 3D FFT for wavefunctions:
    minimum data exchange during FFTs selected (reduces bandwidth)
 parallel 3D FFT for charge:
    minimum data exchange during FFTs selected (reduces bandwidth)


 total amount of memory used by VASP MPI-rank0    55621. kBytes
=======================================================================

   base      :      30000. kBytes
   nonl-proj :       2884. kBytes
   fftplans  :       8579. kBytes
   grid      :      13527. kBytes
   one-center:          6. kBytes
   wavefun   :        625. kBytes
 
     INWAV:  cpu time    0.0000: real time    0.0001
 Broyden mixing: mesh for mixing (old mesh)
   NGX = 33   NGY = 33   NGZ = 33
  (NGX  =140   NGY  =140   NGZ  =140)
  gives a total of  35937 points

 initial charge density was supplied:
 charge density of overlapping atoms calculated
 number of electron       8.0000000 magnetization 
 keeping initial charge density in first step


--------------------------------------------------------------------------------------------------------


 Maximum index for augmentation-charges          158 (set IRDMAX)


--------------------------------------------------------------------------------------------------------


 First call to EWALD:  gamma=   0.173
 Maximum number of real-space cells 3x 3x 3
 Maximum number of reciprocal cells 3x 3x 3

    FEWALD:  cpu time    0.0064: real time    0.0067


--------------------------------------- Iteration      1(   1)  ---------------------------------------


    POTLOK:  cpu time    0.1806: real time    0.1930
    SETDIJ:  cpu time    0.0064: real time    0.0072
     EDDAV:  cpu time    0.3260: real time    0.3494
       DOS:  cpu time    0.0019: real time    0.0019
    --------------------------------------------
      LOOP:  cpu time    0.5149: real time    0.5515

 eigenvalue-minimisations  :    96
 total energy-change (2. order) : 0.1133233E+02  (-0.1818304E+03)
 number of electron       8.0000000 magnetization 
 augmentation part        8.0000000 magnetization 

 Free energy of the ion-electron system (eV)
  ---------------------------------------------------
  alpha Z        PSCENC =         0.22666308
  Ewald energy   TEWEN  =       125.28337651
  -Hartree energ DENC   =      -243.40080326
  -exchange      EXHF   =         0.00000000
  -V(xc)+E(xc)   XCENC  =        21.85935433
  PAW double counting   =       117.05815612     -117.66307307
  entropy T*S    EENTRO =        -0.00000000
  eigenvalues    EBANDS =       -89.07309561
  atomic energy  EATOM  =       197.04175453
  Solvation  Ediel_sol  =         0.00000000
  ---------------------------------------------------
  free energy    TOTEN  =        11.33233264 eV

  energy without entropy =       11.33233264  energy(sigma->0) =       11.33233264


--------------------------------------------------------------------------------------------------------




--------------------------------------- Iteration      1(   2)  ---------------------------------------


     EDDAV:  cpu time    0.1624: real time    0.1654
       DOS:  cpu time    0.0003: real time    0.0003
    --------------------------------------------
      LOOP:  cpu time    0.1627: real time    0.1657

 eigenvalue-minimisations  :    64
 total energy-change (2. order) :-0.3458498E+02  (-0.3458498E+02)
 number of electron       8.0000000 magnetization 
 augmentation part        8.0000000 magnetization 

 Free energy of the ion-electron system (eV)
  ---------------------------------------------------
  alpha Z        PSCENC =         0.22666308
  Ewald energy   TEWEN  =       125.28337651
  -Hartree energ DENC   =      -243.40080326
  -exchange      EXHF   =         0.00000000
  -V(xc)+E(xc)   XCENC  =        21.85935433
  PAW double counting   =       117.05815612     -117.66307307
  entropy T*S    EENTRO =        -0.00000000
  eigenvalues    EBANDS =      -123.65807944
  atomic energy  EATOM  =       197.04175453
  Solvation  Ediel_sol  =         0.00000000
  ---------------------------------------------------
  free energy    TOTEN  =       -23.25265119 eV

  energy without entropy =      -23.25265119  energy(sigma->0) =      -23.25265119


--------------------------------------------------------------------------------------------------------




--------------------------------------- Iteration      1(   3)  ---------------------------------------


     EDDAV:  cpu time    0.1874: real time    0.1908
       DOS:  cpu time    0.0004: real time    0.0004
    --------------------------------------------
      LOOP:  cpu time    0.1879: real time    0.1912

 eigenvalue-minimisations  :    80
 total energy-change (2. order) :-0.3798555E+01  (-0.3798555E+01)
 number of electron       8.0000000 magnetization 
 augmentation part        8.0000000 magnetization 

 Free energy of the ion-electron system (eV)
  ---------------------------------------------------
  alpha Z        PSCENC =         0.22666308
  Ewald energy   TEWEN  =       125.28337651
  -Hartree energ DENC   =      -243.40080326
  -exchange      EXHF   =         0.00000000
  -V(xc)+E(xc)   XCENC  =        21.85935433
  PAW double counting   =       117.05815612     -117.66307307
  entropy T*S    EENTRO =        -0.00000000
  eigenvalues    EBANDS =      -127.45663434
  atomic energy  EATOM  =       197.04175453
  Solvation  Ediel_sol  =         0.00000000
  ---------------------------------------------------
  free energy    TOTEN  =       -27.05120609 eV

  energy without entropy =      -27.05120609  energy(sigma->0) =      -27.05120609


--------------------------------------------------------------------------------------------------------




--------------------------------------- Iteration      1(   4)  ---------------------------------------


     EDDAV:  cpu time    0.2686: real time    0.2806
       DOS:  cpu time    0.0004: real time    0.0004
    --------------------------------------------
      LOOP:  cpu time    0.2690: real time    0.2810

 eigenvalue-minimisations  :   128
 total energy-change (2. order) :-0.8812783E-01  (-0.8812783E-01)
 number of electron       8.0000000 magnetization 
 augmentation part        8.0000000 magnetization 

 Free energy of the ion-electron system (eV)
  ---------------------------------------------------
  alpha Z        PSCENC =         0.22666308
  Ewald energy   TEWEN  =       125.28337651
  -Hartree energ DENC   =      -243.40080326
  -exchange      EXHF   =         0.00000000
  -V(xc)+E(xc)   XCENC  =        21.85935433
  PAW double counting   =       117.05815612     -117.66307307
  entropy T*S    EENTRO =        -0.00000000
  eigenvalues    EBANDS =      -127.54476216
  atomic energy  EATOM  =       197.04175453
  Solvation  Ediel_sol  =         0.00000000
  ---------------------------------------------------
  free energy    TOTEN  =       -27.13933391 eV

  energy without entropy =      -27.13933391  energy(sigma->0) =      -27.13933391


--------------------------------------------------------------------------------------------------------




--------------------------------------- Iteration      1(   5)  ---------------------------------------


     EDDAV:  cpu time    0.2117: real time    0.2218
       DOS:  cpu time    0.0002: real time    0.0002
    CHARGE:  cpu time    0.0233: real time    0.0239
    MIXING:  cpu time    0.0044: real time    0.0045
    --------------------------------------------
      LOOP:  cpu time    0.2396: real time    0.2504

 eigenvalue-minimisations  :    96
 total energy-change (2. order) :-0.2878836E-04  (-0.2878854E-04)
 number of electron       8.0000002 magnetization 
 augmentation part        0.2154621 magnetization 

 Broyden mixing:
  rms(total) = 0.82308E+00    rms(broyden)= 0.82286E+00
  rms(prec ) = 0.11656E+01
  weight for this iteration     100.00

 Free energy of the ion-electron system (eV)
  ---------------------------------------------------
  alpha Z        PSCENC =         0.22666308
  Ewald energy   TEWEN  =       125.28337651
  -Hartree energ DENC   =      -243.40080326
  -exchange      EXHF   =         0.00000000
  -V(xc)+E(xc)   XCENC  =        21.85935433
  PAW double counting   =       117.05815612     -117.66307307
  entropy T*S    EENTRO =        -0.00000000
  eigenvalues    EBANDS =      -127.54479095
  atomic energy  EATOM  =       197.04175453
  Solvation  Ediel_sol  =         0.00000000
  ---------------------------------------------------
  free energy    TOTEN  =       -27.13936270 eV

  energy without entropy =      -27.13936270  energy(sigma->0) =      -27.13936270


--------------------------------------------------------------------------------------------------------




--------------------------------------- Iteration      1(   6)  ---------------------------------------


    POTLOK:  cpu time    0.1703: real time    0.1741
    SETDIJ:  cpu time    0.0021: real time    0.0021
    EDDIAG:  cpu time    0.0459: real time    0.0626
  RMM-DIIS:  cpu time    0.1711: real time    0.1763
    ORTHCH:  cpu time    0.0019: real time    0.0019
       DOS:  cpu time    0.0002: real time    0.0002
    CHARGE:  cpu time    0.0214: real time    0.0215
    MIXING:  cpu time    0.0051: real time    0.0071
    --------------------------------------------
      LOOP:  cpu time    0.4179: real time    0.4458

 eigenvalue-minimisations  :    64
 total energy-change (2. order) : 0.2588390E+01  (-0.4707856E+00)
 number of electron       8.0000001 magnetization 
 augmentation part        0.1899701 magnetization 

 Broyden mixing:
  rms(total) = 0.40873E+00    rms(broyden)= 0.40863E+00
  rms(prec ) = 0.52764E+00
  weight for this iteration     100.00

 eigenvalues of (default mixing * dielectric matrix)
  average eigenvalue GAMMA=   1.2845
  1.2845

 Free energy of the ion-electron system (eV)
  ---------------------------------------------------
  alpha Z        PSCENC =         0.22666308
  Ewald energy   TEWEN  =       125.28337651
  -Hartree energ DENC   =      -262.06245000
  -exchange      EXHF   =         0.00000000
  -V(xc)+E(xc)   XCENC  =        22.99281831
  PAW double counting   =       229.56402209     -230.32915874
  entropy T*S    EENTRO =        -0.00000000
  eigenvalues    EBANDS =      -107.26799844
  atomic energy  EATOM  =       197.04175453
  Solvation  Ediel_sol  =         0.00000000
  ---------------------------------------------------
  free energy    TOTEN  =       -24.55097265 eV

  energy without entropy =      -24.55097265  energy(sigma->0) =      -24.55097265


--------------------------------------------------------------------------------------------------------




--------------------------------------- Iteration      1(   7)  ---------------------------------------


    POTLOK:  cpu time    0.1568: real time    0.1616
    SETDIJ:  cpu time    0.0021: real time    0.0021
    EDDIAG:  cpu time    0.0383: real time    0.0395
  RMM-DIIS:  cpu time    0.1657: real time    0.1715
    ORTHCH:  cpu time    0.0016: real time    0.0017
       DOS:  cpu time    0.0002: real time    0.0002
    CHARGE:  cpu time    0.0194: real time    0.0200
    MIXING:  cpu time    0.0049: real time    0.0050
    --------------------------------------------
      LOOP:  cpu time    0.3889: real time    0.4015

 eigenvalue-minimisations  :    64
 total energy-change (2. order) : 0.4366807E+00  (-0.9653848E-01)
 number of electron       8.0000001 magnetization 
 augmentation part        0.1805820 magnetization 

 Broyden mixing:
  rms(total) = 0.21987E+00    rms(broyden)= 0.21982E+00
  rms(prec ) = 0.26680E+00
  weight for this iteration     100.00

 eigenvalues of (default mixing * dielectric matrix)
  average eigenvalue GAMMA=   1.8344
  1.4242  2.2445

 Free energy of the ion-electron system (eV)
  ---------------------------------------------------
  alpha Z        PSCENC =         0.22666308
  Ewald energy   TEWEN  =       125.28337651
  -Hartree energ DENC   =      -272.70630663
  -exchange      EXHF   =         0.00000000
  -V(xc)+E(xc)   XCENC  =        23.78371736
  PAW double counting   =       341.12047065     -341.91675072
  entropy T*S    EENTRO =        -0.00000000
  eigenvalues    EBANDS =       -96.94721671
  atomic energy  EATOM  =       197.04175453
  Solvation  Ediel_sol  =         0.00000000
  ---------------------------------------------------
  free energy    TOTEN  =       -24.11429192 eV

  energy without entropy =      -24.11429192  energy(sigma->0) =      -24.11429192


--------------------------------------------------------------------------------------------------------




--------------------------------------- Iteration      1(   8)  ---------------------------------------


    POTLOK:  cpu time    0.1523: real time    0.1588
    SETDIJ:  cpu time    0.0023: real time    0.0023
    EDDIAG:  cpu time    0.0384: real time    0.0395
  RMM-DIIS:  cpu time    0.1665: real time    0.1726
    ORTHCH:  cpu time    0.0017: real time    0.0017
       DOS:  cpu time    0.0002: real time    0.0002
    CHARGE:  cpu time    0.0196: real time    0.0202
    MIXING:  cpu time    0.0049: real time    0.0050
    --------------------------------------------
      LOOP:  cpu time    0.3858: real time    0.4003

 eigenvalue-minimisations  :    64
 total energy-change (2. order) : 0.1414299E+00  (-0.1629382E-01)
 number of electron       8.0000001 magnetization 
 augmentation part        0.1792755 magnetization 

 Broyden mixing:
  rms(total) = 0.23244E-01    rms(broyden)= 0.23220E-01
  rms(prec ) = 0.51771E-01
  weight for this iteration     100.00

 eigenvalues of (default mixing * dielectric matrix)
  average eigenvalue GAMMA=   1.5301
  2.2486  0.9677  1.3741

 Free energy of the ion-electron system (eV)
  ---------------------------------------------------
  alpha Z        PSCENC =         0.22666308
  Ewald energy   TEWEN  =       125.28337651
  -Hartree energ DENC   =      -278.07492441
  -exchange      EXHF   =         0.00000000
  -V(xc)+E(xc)   XCENC  =        24.31600016
  PAW double counting   =       439.16964327     -439.93522305
  entropy T*S    EENTRO =        -0.00000000
  eigenvalues    EBANDS =       -92.00015213
  atomic energy  EATOM  =       197.04175453
  Solvation  Ediel_sol  =         0.00000000
  ---------------------------------------------------
  free energy    TOTEN  =       -23.97286204 eV

  energy without entropy =      -23.97286204  energy(sigma->0) =      -23.97286204


--------------------------------------------------------------------------------------------------------




--------------------------------------- Iteration      1(   9)  ---------------------------------------


    POTLOK:  cpu time    0.1514: real time    0.1570
    SETDIJ:  cpu time    0.0022: real time    0.0022
    EDDIAG:  cpu time    0.0381: real time    0.0394
  RMM-DIIS:  cpu time    0.1644: real time    0.1730
    ORTHCH:  cpu time    0.0016: real time    0.0016
       DOS:  cpu time    0.0002: real time    0.0002
    CHARGE:  cpu time    0.0195: real time    0.0201
    MIXING:  cpu time    0.0053: real time    0.0066
    --------------------------------------------
      LOOP:  cpu time    0.3827: real time    0.4002

 eigenvalue-minimisations  :    64
 total energy-change (2. order) : 0.5442769E-02  (-0.1058446E-02)
 number of electron       8.0000001 magnetization 
 augmentation part        0.1787463 magnetization 

 Broyden mixing:
  rms(total) = 0.18919E-01    rms(broyden)= 0.18915E-01
  rms(prec ) = 0.39231E-01
  weight for this iteration     100.00

 eigenvalues of (default mixing * dielectric matrix)
  average eigenvalue GAMMA=   2.0684
  1.0042  1.3417  2.9639  2.9639

 Free energy of the ion-electron system (eV)
  ---------------------------------------------------
  alpha Z        PSCENC =         0.22666308
  Ewald energy   TEWEN  =       125.28337651
  -Hartree energ DENC   =      -279.27856256
  -exchange      EXHF   =         0.00000000
  -V(xc)+E(xc)   XCENC  =        24.38024726
  PAW double counting   =       441.01943087     -441.78791485
  entropy T*S    EENTRO =        -0.00000000
  eigenvalues    EBANDS =       -90.85241411
  atomic energy  EATOM  =       197.04175453
  Solvation  Ediel_sol  =         0.00000000
  ---------------------------------------------------
  free energy    TOTEN  =       -23.96741927 eV

  energy without entropy =      -23.96741927  energy(sigma->0) =      -23.96741927


--------------------------------------------------------------------------------------------------------




--------------------------------------- Iteration      1(  10)  ---------------------------------------


    POTLOK:  cpu time    0.1468: real time    0.1519
    SETDIJ:  cpu time    0.0021: real time    0.0021
    EDDIAG:  cpu time    0.0374: real time    0.0388
  RMM-DIIS:  cpu time    0.1660: real time    0.1741
    ORTHCH:  cpu time    0.0020: real time    0.0021
       DOS:  cpu time    0.0004: real time    0.0005
    CHARGE:  cpu time    0.0192: real time    0.0197
    MIXING:  cpu time    0.0052: real time    0.0053
    --------------------------------------------
      LOOP:  cpu time    0.3791: real time    0.3945

 eigenvalue-minimisations  :    64
 total energy-change (2. order) : 0.6566492E-02  (-0.2474204E-02)
 number of electron       8.0000001 magnetization 
 augmentation part        0.1777279 magnetization 

 Broyden mixing:
  rms(total) = 0.26660E-01    rms(broyden)= 0.26658E-01
  rms(prec ) = 0.34455E-01
  weight for this iteration     100.00

 eigenvalues of (default mixing * dielectric matrix)
  average eigenvalue GAMMA=   1.7932
  3.0855  2.3770  0.9884  1.2575  1.2575

 Free energy of the ion-electron system (eV)
  ---------------------------------------------------
  alpha Z        PSCENC =         0.22666308
  Ewald energy   TEWEN  =       125.28337651
  -Hartree energ DENC   =      -281.42388397
  -exchange      EXHF   =         0.00000000
  -V(xc)+E(xc)   XCENC  =        24.45093858
  PAW double counting   =       426.69590877     -427.46768799
  entropy T*S    EENTRO =        -0.00000000
  eigenvalues    EBANDS =       -88.76792230
  atomic energy  EATOM  =       197.04175453
  Solvation  Ediel_sol  =         0.00000000
  ---------------------------------------------------
  free energy    TOTEN  =       -23.96085278 eV

  energy without entropy =      -23.96085278  energy(sigma->0) =      -23.96085278


--------------------------------------------------------------------------------------------------------




--------------------------------------- Iteration      1(  11)  ---------------------------------------


    POTLOK:  cpu time    0.1465: real time    0.1526
    SETDIJ:  cpu time    0.0020: real time    0.0021
    EDDIAG:  cpu time    0.0378: real time    0.0389
  RMM-DIIS:  cpu time    0.1641: real time    0.1695
    ORTHCH:  cpu time    0.0016: real time    0.0017
       DOS:  cpu time    0.0002: real time    0.0002
    CHARGE:  cpu time    0.0190: real time    0.0198
    MIXING:  cpu time    0.0052: real time    0.0053
    --------------------------------------------
      LOOP:  cpu time    0.3765: real time    0.3901

 eigenvalue-minimisations  :    64
 total energy-change (2. order) :-0.1091719E-02  (-0.1047326E-02)
 number of electron       8.0000001 magnetization 
 augmentation part        0.1781582 magnetization 

 Broyden mixing:
  rms(total) = 0.11185E-01    rms(broyden)= 0.11181E-01
  rms(prec ) = 0.16588E-01
  weight for this iteration     100.00

 eigenvalues of (default mixing * dielectric matrix)
  average eigenvalue GAMMA=   2.2907
  4.9621  3.0746  2.4224  1.2172  1.0338  1.0338

 Free energy of the ion-electron system (eV)
  ---------------------------------------------------
  alpha Z        PSCENC =         0.22666308
  Ewald energy   TEWEN  =       125.28337651
  -Hartree energ DENC   =      -281.30914818
  -exchange      EXHF   =         0.00000000
  -V(xc)+E(xc)   XCENC  =        24.46536825
  PAW double counting   =       435.22735859     -435.99105187
  entropy T*S    EENTRO =        -0.00000000
  eigenvalues    EBANDS =       -88.90626541
  atomic energy  EATOM  =       197.04175453
  Solvation  Ediel_sol  =         0.00000000
  ---------------------------------------------------
  free energy    TOTEN  =       -23.96194450 eV

  energy without entropy =      -23.96194450  energy(sigma->0) =      -23.96194450


--------------------------------------------------------------------------------------------------------




--------------------------------------- Iteration      1(  12)  ---------------------------------------


    POTLOK:  cpu time    0.1388: real time    0.1461
    SETDIJ:  cpu time    0.0020: real time    0.0021
    EDDIAG:  cpu time    0.0376: real time    0.0388
  RMM-DIIS:  cpu time    0.1667: real time    0.1715
    ORTHCH:  cpu time    0.0018: real time    0.0018
       DOS:  cpu time    0.0002: real time    0.0002
    CHARGE:  cpu time    0.0191: real time    0.0196
    MIXING:  cpu time    0.0056: real time    0.0057
    --------------------------------------------
      LOOP:  cpu time    0.3718: real time    0.3866

 eigenvalue-minimisations  :    64
 total energy-change (2. order) :-0.8820330E-02  (-0.2385751E-03)
 number of electron       8.0000001 magnetization 
 augmentation part        0.1782971 magnetization 

 Broyden mixing:
  rms(total) = 0.11350E-01    rms(broyden)= 0.11349E-01
  rms(prec ) = 0.15008E-01
  weight for this iteration     100.00

 eigenvalues of (default mixing * dielectric matrix)
  average eigenvalue GAMMA=   2.0208
  4.8740  2.9605  2.4159  1.1613  1.0378  1.0378  0.6585

 Free energy of the ion-electron system (eV)
  ---------------------------------------------------
  alpha Z        PSCENC =         0.22666308
  Ewald energy   TEWEN  =       125.28337651
  -Hartree energ DENC   =      -281.54911242
  -exchange      EXHF   =         0.00000000
  -V(xc)+E(xc)   XCENC  =        24.45672665
  PAW double counting   =       431.67280646     -432.43658888
  entropy T*S    EENTRO =        -0.00000000
  eigenvalues    EBANDS =       -88.66639076
  atomic energy  EATOM  =       197.04175453
  Solvation  Ediel_sol  =         0.00000000
  ---------------------------------------------------
  free energy    TOTEN  =       -23.97076483 eV

  energy without entropy =      -23.97076483  energy(sigma->0) =      -23.97076483


--------------------------------------------------------------------------------------------------------




--------------------------------------- Iteration      1(  13)  ---------------------------------------


    POTLOK:  cpu time    0.1376: real time    0.1429
    SETDIJ:  cpu time    0.0020: real time    0.0021
    EDDIAG:  cpu time    0.0378: real time    0.0392
  RMM-DIIS:  cpu time    0.1654: real time    0.1706
    ORTHCH:  cpu time    0.0019: real time    0.0019
       DOS:  cpu time    0.0002: real time    0.0002
    CHARGE:  cpu time    0.0192: real time    0.0197
    MIXING:  cpu time    0.0057: real time    0.0058
    --------------------------------------------
      LOOP:  cpu time    0.3696: real time    0.3815

 eigenvalue-minimisations  :    64
 total energy-change (2. order) :-0.6850527E-03  (-0.1230765E-03)
 number of electron       8.0000001 magnetization 
 augmentation part        0.1780284 magnetization 

 Broyden mixing:
  rms(total) = 0.33522E-02    rms(broyden)= 0.33514E-02
  rms(prec ) = 0.51173E-02
  weight for this iteration     100.00

 eigenvalues of (default mixing * dielectric matrix)
  average eigenvalue GAMMA=   2.4860
  6.2792  4.3959  2.4659  2.4659  1.2013  1.2013  0.9908  0.8880

 Free energy of the ion-electron system (eV)
  ---------------------------------------------------
  alpha Z        PSCENC =         0.22666308
  Ewald energy   TEWEN  =       125.28337651
  -Hartree energ DENC   =      -281.72384357
  -exchange      EXHF   =         0.00000000
  -V(xc)+E(xc)   XCENC  =        24.46106467
  PAW double counting   =       431.43304781     -432.19917410
  entropy T*S    EENTRO =        -0.00000000
  eigenvalues    EBANDS =       -88.49433882
  atomic energy  EATOM  =       197.04175453
  Solvation  Ediel_sol  =         0.00000000
  ---------------------------------------------------
  free energy    TOTEN  =       -23.97144988 eV

  energy without entropy =      -23.97144988  energy(sigma->0) =      -23.97144988


--------------------------------------------------------------------------------------------------------




--------------------------------------- Iteration      1(  14)  ---------------------------------------


    POTLOK:  cpu time    0.1351: real time    0.1410
    SETDIJ:  cpu time    0.0021: real time    0.0021
    EDDIAG:  cpu time    0.0377: real time    0.0392
  RMM-DIIS:  cpu time    0.1651: real time    0.1726
    ORTHCH:  cpu time    0.0019: real time    0.0019
       DOS:  cpu time    0.0002: real time    0.0002
    CHARGE:  cpu time    0.0190: real time    0.0198
    MIXING:  cpu time    0.0060: real time    0.0062
    --------------------------------------------
      LOOP:  cpu time    0.3670: real time    0.3829

 eigenvalue-minimisations  :    64
 total energy-change (2. order) :-0.2891337E-02  (-0.1013690E-03)
 number of electron       8.0000001 magnetization 
 augmentation part        0.1779529 magnetization 

 Broyden mixing:
  rms(total) = 0.24433E-02    rms(broyden)= 0.24418E-02
  rms(prec ) = 0.32013E-02
  weight for this iteration     100.00

 eigenvalues of (default mixing * dielectric matrix)
  average eigenvalue GAMMA=   2.3194
  6.5027  4.1727  2.6261  2.3818  1.1471  1.1471  1.0279  0.9347  0.9347

 Free energy of the ion-electron system (eV)
  ---------------------------------------------------
  alpha Z        PSCENC =         0.22666308
  Ewald energy   TEWEN  =       125.28337651
  -Hartree energ DENC   =      -281.68556387
  -exchange      EXHF   =         0.00000000
  -V(xc)+E(xc)   XCENC  =        24.44960188
  PAW double counting   =       430.90261346     -431.66945784
  entropy T*S    EENTRO =        -0.00000000
  eigenvalues    EBANDS =       -88.52332898
  atomic energy  EATOM  =       197.04175453
  Solvation  Ediel_sol  =         0.00000000
  ---------------------------------------------------
  free energy    TOTEN  =       -23.97434122 eV

  energy without entropy =      -23.97434122  energy(sigma->0) =      -23.97434122


--------------------------------------------------------------------------------------------------------




--------------------------------------- Iteration      1(  15)  ---------------------------------------


    POTLOK:  cpu time    0.1344: real time    0.1409
    SETDIJ:  cpu time    0.0021: real time    0.0021
    EDDIAG:  cpu time    0.0374: real time    0.0390
  RMM-DIIS:  cpu time    0.1646: real time    0.1725
    ORTHCH:  cpu time    0.0017: real time    0.0017
       DOS:  cpu time    0.0002: real time    0.0002
    CHARGE:  cpu time    0.0189: real time    0.0196
    MIXING:  cpu time    0.0060: real time    0.0061
    --------------------------------------------
      LOOP:  cpu time    0.3653: real time    0.3821

 eigenvalue-minimisations  :    64
 total energy-change (2. order) :-0.1984871E-03  (-0.7971424E-05)
 number of electron       8.0000001 magnetization 
 augmentation part        0.1778694 magnetization 

 Broyden mixing:
  rms(total) = 0.26460E-02    rms(broyden)= 0.26457E-02
  rms(prec ) = 0.35169E-02
  weight for this iteration     100.00

 eigenvalues of (default mixing * dielectric matrix)
  average eigenvalue GAMMA=   2.5455
  7.5888  4.8211  2.8675  2.6542  2.2405  1.2272  1.2272  0.9798  0.9611  0.8873

 Free energy of the ion-electron system (eV)
  ---------------------------------------------------
  alpha Z        PSCENC =         0.22666308
  Ewald energy   TEWEN  =       125.28337651
  -Hartree energ DENC   =      -281.73644598
  -exchange      EXHF   =         0.00000000
  -V(xc)+E(xc)   XCENC  =        24.45295195
  PAW double counting   =       431.09429562     -431.86107884
  entropy T*S    EENTRO =        -0.00000000
  eigenvalues    EBANDS =       -88.47605659
  atomic energy  EATOM  =       197.04175453
  Solvation  Ediel_sol  =         0.00000000
  ---------------------------------------------------
  free energy    TOTEN  =       -23.97453971 eV

  energy without entropy =      -23.97453971  energy(sigma->0) =      -23.97453971


--------------------------------------------------------------------------------------------------------




--------------------------------------- Iteration      1(  16)  ---------------------------------------


    POTLOK:  cpu time    0.1367: real time    0.1416
    SETDIJ:  cpu time    0.0021: real time    0.0021
    EDDIAG:  cpu time    0.0373: real time    0.0389
  RMM-DIIS:  cpu time    0.1622: real time    0.1691
    ORTHCH:  cpu time    0.0024: real time    0.0025
       DOS:  cpu time    0.0002: real time    0.0002
    CHARGE:  cpu time    0.0188: real time    0.0195
    MIXING:  cpu time    0.0062: real time    0.0065
    --------------------------------------------
      LOOP:  cpu time    0.3659: real time    0.3803

 eigenvalue-minimisations  :    64
 total energy-change (2. order) :-0.2422531E-03  (-0.2399406E-04)
 number of electron       8.0000001 magnetization 
 augmentation part        0.1779646 magnetization 

 Broyden mixing:
  rms(total) = 0.10361E-02    rms(broyden)= 0.10353E-02
  rms(prec ) = 0.13827E-02
  weight for this iteration     100.00

 eigenvalues of (default mixing * dielectric matrix)
  average eigenvalue GAMMA=   2.4867
  7.8823  4.8282  3.4544  2.4549  2.2827  1.2412  1.2412  1.0510  1.0510  0.8928
  0.9739

 Free energy of the ion-electron system (eV)
  ---------------------------------------------------
  alpha Z        PSCENC =         0.22666308
  Ewald energy   TEWEN  =       125.28337651
  -Hartree energ DENC   =      -281.66696393
  -exchange      EXHF   =         0.00000000
  -V(xc)+E(xc)   XCENC  =        24.45063301
  PAW double counting   =       431.13138885     -431.89724581
  entropy T*S    EENTRO =        -0.00000000
  eigenvalues    EBANDS =       -88.54438819
  atomic energy  EATOM  =       197.04175453
  Solvation  Ediel_sol  =         0.00000000
  ---------------------------------------------------
  free energy    TOTEN  =       -23.97478196 eV

  energy without entropy =      -23.97478196  energy(sigma->0) =      -23.97478196


--------------------------------------------------------------------------------------------------------




--------------------------------------- Iteration      1(  17)  ---------------------------------------


    POTLOK:  cpu time    0.1357: real time    0.1422
    SETDIJ:  cpu time    0.0021: real time    0.0021
    EDDIAG:  cpu time    0.0378: real time    0.0394
  RMM-DIIS:  cpu time    0.1605: real time    0.1687
    ORTHCH:  cpu time    0.0016: real time    0.0016
       DOS:  cpu time    0.0002: real time    0.0002
    CHARGE:  cpu time    0.0192: real time    0.0200
    MIXING:  cpu time    0.0063: real time    0.0065
    --------------------------------------------
      LOOP:  cpu time    0.3634: real time    0.3807

 eigenvalue-minimisations  :    64
 total energy-change (2. order) :-0.2780145E-04  (-0.1574923E-05)
 number of electron       8.0000001 magnetization 
 augmentation part        0.1779467 magnetization 

 Broyden mixing:
  rms(total) = 0.18249E-03    rms(broyden)= 0.18243E-03
  rms(prec ) = 0.25516E-03
  weight for this iteration     100.00

 eigenvalues of (default mixing * dielectric matrix)
  average eigenvalue GAMMA=   2.5885
  8.5564  5.2838  3.8728  2.6231  2.4506  1.7568  1.2874  1.2874  1.0570  1.0118
  0.9840  0.8914

 Free energy of the ion-electron system (eV)
  ---------------------------------------------------
  alpha Z        PSCENC =         0.22666308
  Ewald energy   TEWEN  =       125.28337651
  -Hartree energ DENC   =      -281.70459946
  -exchange      EXHF   =         0.00000000
  -V(xc)+E(xc)   XCENC  =        24.45220537
  PAW double counting   =       431.12059530     -431.88676565
  entropy T*S    EENTRO =        -0.00000000
  eigenvalues    EBANDS =       -88.50803943
  atomic energy  EATOM  =       197.04175453
  Solvation  Ediel_sol  =         0.00000000
  ---------------------------------------------------
  free energy    TOTEN  =       -23.97480976 eV

  energy without entropy =      -23.97480976  energy(sigma->0) =      -23.97480976


--------------------------------------------------------------------------------------------------------




--------------------------------------- Iteration      1(  18)  ---------------------------------------


    POTLOK:  cpu time    0.1391: real time    0.1463
    SETDIJ:  cpu time    0.0111: real time    0.0114
    EDDIAG:  cpu time    0.0397: real time    0.0413
  RMM-DIIS:  cpu time    0.1533: real time    0.1600
    ORTHCH:  cpu time    0.0016: real time    0.0017
       DOS:  cpu time    0.0002: real time    0.0002
    CHARGE:  cpu time    0.0192: real time    0.0199
    MIXING:  cpu time    0.0066: real time    0.0068
    --------------------------------------------
      LOOP:  cpu time    0.3708: real time    0.3875

 eigenvalue-minimisations  :    60
 total energy-change (2. order) :-0.2109241E-04  (-0.4313819E-06)
 number of electron       8.0000001 magnetization 
 augmentation part        0.1779303 magnetization 

 Broyden mixing:
  rms(total) = 0.20941E-03    rms(broyden)= 0.20930E-03
  rms(prec ) = 0.29656E-03
  weight for this iteration     100.00

 eigenvalues of (default mixing * dielectric matrix)
  average eigenvalue GAMMA=   2.5248
  8.6380  5.4086  3.8593  2.6916  2.3933  2.0275  1.3120  1.3120  1.1514  1.1514
  0.8993  0.9892  0.9892

 Free energy of the ion-electron system (eV)
  ---------------------------------------------------
  alpha Z        PSCENC =         0.22666308
  Ewald energy   TEWEN  =       125.28337651
  -Hartree energ DENC   =      -281.70439501
  -exchange      EXHF   =         0.00000000
  -V(xc)+E(xc)   XCENC  =        24.45195084
  PAW double counting   =       431.10310855     -431.86934881
  entropy T*S    EENTRO =        -0.00000000
  eigenvalues    EBANDS =       -88.50794056
  atomic energy  EATOM  =       197.04175453
  Solvation  Ediel_sol  =         0.00000000
  ---------------------------------------------------
  free energy    TOTEN  =       -23.97483085 eV

  energy without entropy =      -23.97483085  energy(sigma->0) =      -23.97483085


--------------------------------------------------------------------------------------------------------




--------------------------------------- Iteration      1(  19)  ---------------------------------------


    POTLOK:  cpu time    0.1431: real time    0.1487
    SETDIJ:  cpu time    0.0020: real time    0.0020
    EDDIAG:  cpu time    0.0371: real time    0.0388
  RMM-DIIS:  cpu time    0.1282: real time    0.1350
    ORTHCH:  cpu time    0.0016: real time    0.0016
       DOS:  cpu time    0.0002: real time    0.0002
    CHARGE:  cpu time    0.0194: real time    0.0201
    MIXING:  cpu time    0.0067: real time    0.0070
    --------------------------------------------
      LOOP:  cpu time    0.3384: real time    0.3533

 eigenvalue-minimisations  :    48
 total energy-change (2. order) :-0.2715045E-05  (-0.1642856E-06)
 number of electron       8.0000001 magnetization 
 augmentation part        0.1779387 magnetization 

 Broyden mixing:
  rms(total) = 0.76543E-04    rms(broyden)= 0.76533E-04
  rms(prec ) = 0.10529E-03
  weight for this iteration     100.00

 eigenvalues of (default mixing * dielectric matrix)
  average eigenvalue GAMMA=   2.5769
  8.7411  5.7069  3.7974  3.7974  2.4120  2.4120  1.6973  1.2922  1.2922  1.1093
  1.0178  1.0178  0.8917  0.8917

 Free energy of the ion-electron system (eV)
  ---------------------------------------------------
  alpha Z        PSCENC =         0.22666308
  Ewald energy   TEWEN  =       125.28337651
  -Hartree energ DENC   =      -281.69431726
  -exchange      EXHF   =         0.00000000
  -V(xc)+E(xc)   XCENC  =        24.45143744
  PAW double counting   =       431.08073842     -431.84687280
  entropy T*S    EENTRO =        -0.00000000
  eigenvalues    EBANDS =       -88.51761349
  atomic energy  EATOM  =       197.04175453
  Solvation  Ediel_sol  =         0.00000000
  ---------------------------------------------------
  free energy    TOTEN  =       -23.97483357 eV

  energy without entropy =      -23.97483357  energy(sigma->0) =      -23.97483357


--------------------------------------------------------------------------------------------------------




--------------------------------------- Iteration      1(  20)  ---------------------------------------


    POTLOK:  cpu time    0.1464: real time    0.1515
    SETDIJ:  cpu time    0.0020: real time    0.0020
    EDDIAG:  cpu time    0.0374: real time    0.0392
  RMM-DIIS:  cpu time    0.1250: real time    0.1308
    ORTHCH:  cpu time    0.0020: real time    0.0020
       DOS:  cpu time    0.0003: real time    0.0003
    CHARGE:  cpu time    0.0196: real time    0.0205
    MIXING:  cpu time    0.0071: real time    0.0072
    --------------------------------------------
      LOOP:  cpu time    0.3398: real time    0.3535

 eigenvalue-minimisations  :    44
 total energy-change (2. order) :-0.2372297E-05  (-0.1456448E-07)
 number of electron       8.0000001 magnetization 
 augmentation part        0.1779391 magnetization 

 Broyden mixing:
  rms(total) = 0.28401E-04    rms(broyden)= 0.28395E-04
  rms(prec ) = 0.46428E-04
  weight for this iteration     100.00

 eigenvalues of (default mixing * dielectric matrix)
  average eigenvalue GAMMA=   2.4636
  8.7730  5.6303  4.1054  3.3706  2.5374  2.3888  1.7826  1.2979  1.2979  0.9375
  0.9375  1.0242  1.0003  1.0003  0.8705

 Free energy of the ion-electron system (eV)
  ---------------------------------------------------
  alpha Z        PSCENC =         0.22666308
  Ewald energy   TEWEN  =       125.28337651
  -Hartree energ DENC   =      -281.69475842
  -exchange      EXHF   =         0.00000000
  -V(xc)+E(xc)   XCENC  =        24.45139908
  PAW double counting   =       431.07730434     -431.84345848
  entropy T*S    EENTRO =        -0.00000000
  eigenvalues    EBANDS =       -88.51711659
  atomic energy  EATOM  =       197.04175453
  Solvation  Ediel_sol  =         0.00000000
  ---------------------------------------------------
  free energy    TOTEN  =       -23.97483594 eV

  energy without entropy =      -23.97483594  energy(sigma->0) =      -23.97483594


--------------------------------------------------------------------------------------------------------




--------------------------------------- Iteration      1(  21)  ---------------------------------------


    POTLOK:  cpu time    0.1450: real time    0.1510
    SETDIJ:  cpu time    0.0021: real time    0.0021
    EDDIAG:  cpu time    0.0459: real time    0.0507
  RMM-DIIS:  cpu time    0.1269: real time    0.1316
    ORTHCH:  cpu time    0.0017: real time    0.0017
       DOS:  cpu time    0.0002: real time    0.0002
    --------------------------------------------
      LOOP:  cpu time    0.3218: real time    0.3374

 eigenvalue-minimisations  :    36
 total energy-change (2. order) :-0.1777660E-06  (-0.2362036E-08)
 number of electron       8.0000001 magnetization 
 augmentation part        0.1779391 magnetization 

 Free energy of the ion-electron system (eV)
  ---------------------------------------------------
  alpha Z        PSCENC =         0.22666308
  Ewald energy   TEWEN  =       125.28337651
  -Hartree energ DENC   =      -281.69646321
  -exchange      EXHF   =         0.00000000
  -V(xc)+E(xc)   XCENC  =        24.45151034
  PAW double counting   =       431.08107782     -431.84723829
  entropy T*S    EENTRO =        -0.00000000
  eigenvalues    EBANDS =       -88.51551690
  atomic energy  EATOM  =       197.04175453
  Solvation  Ediel_sol  =         0.00000000
  ---------------------------------------------------
  free energy    TOTEN  =       -23.97483612 eV

  energy without entropy =      -23.97483612  energy(sigma->0) =      -23.97483612


--------------------------------------------------------------------------------------------------------




 average (electrostatic) potential at core
  the test charge radii are     0.5201  0.6991
  (the norm of the test charge is              1.0000)
       1 -41.3247       2 -41.2421       3 -41.4122       4 -41.3979       5 -58.1383
 
 
 
 E-fermi :  -8.0803     XC(G=0):  -0.6717     alpha+bet : -0.1971


 k-point     1 :       0.2500    0.2500    0.2500
  band No.  band energies     occupation 
      1     -16.6884      2.00000
      2      -9.2762      2.00000
      3      -9.2305      2.00000
      4      -9.0626      2.00000
      5      -0.3629      0.00000
      6       0.5181      0.00000
      7       0.6372      0.00000
      8       0.6678      0.00000

 k-point     2 :      -0.2500    0.2500    0.2500
  band No.  band energies     occupation 
      1     -16.6884      2.00000
      2      -9.2761      2.00000
      3      -9.2305      2.00000
      4      -9.0627      2.00000
      5      -0.3608      0.00000
      6       0.5094      0.00000
      7       0.6265      0.00000
      8       0.6666      0.00000

 k-point     3 :       0.2500   -0.2500    0.2500
  band No.  band energies     occupation 
      1     -16.6884      2.00000
      2      -9.2762      2.00000
      3      -9.2306      2.00000
      4      -9.0627      2.00000
      5      -0.3639      0.00000
      6       0.5156      0.00000
      7       0.6416      0.00000
      8       0.6700      0.00000

 k-point     4 :      -0.2500   -0.2500    0.2500
  band No.  band energies     occupation 
      1     -16.6884      2.00000
      2      -9.2762      2.00000
      3      -9.2305      2.00000
      4      -9.0626      2.00000
      5      -0.3566      0.00000
      6       0.5059      0.00000
      7       0.6189      0.00000
      8       0.6485      0.00000


--------------------------------------------------------------------------------------------------------


 soft charge-density along one line, spin component           1
         0         1         2         3         4         5         6         7         8         9
 total charge-density along one line
 
 pseudopotential strength for first ion, spin component:           1
 -2.340  -4.031  -0.001  -0.001   0.001
 -4.031  -6.860  -0.003  -0.004   0.002
 -0.001  -0.003  -0.339   0.002  -0.001
 -0.001  -0.004   0.002  -0.337  -0.001
  0.001   0.002  -0.001  -0.001  -0.340
 total augmentation occupancy for first ion, spin component:           1
  3.439  -0.622   0.219   0.311  -0.120
 -0.622   0.126  -0.041  -0.058   0.023
  0.219  -0.041   0.019   0.017  -0.006
  0.311  -0.058   0.017   0.031  -0.009
 -0.120   0.023  -0.006  -0.009   0.011


------------------------ aborting loop because EDIFF is reached ----------------------------------------


    CHARGE:  cpu time    0.0194: real time    0.0199
    FORLOC:  cpu time    0.0143: real time    0.0146
    FORNL :  cpu time    0.0222: real time    0.0226
    STRESS:  cpu time    0.1648: real time    0.1676
    FORCOR:  cpu time    0.1460: real time    0.1503
    FORHAR:  cpu time    0.0447: real time    0.0454
    MIXING:  cpu time    0.0069: real time    0.0071
    OFIELD:  cpu time    0.0001: real time    0.0000

  FORCE on cell =-STRESS in cart. coord.  units (eV):
  Direction    XX          YY          ZZ          XY          YZ          ZX
  --------------------------------------------------------------------------------------
  Alpha Z     0.22666     0.22666     0.22666
  Ewald      40.47521    42.76554    42.04258    -0.46566     0.33460     2.71433
  Hartree    93.57327    94.24743    93.87730    -0.43914     0.29666     1.05267
  E(xc)     -26.89627   -26.89811   -26.89724    -0.00372     0.00278     0.01274
  Local    -193.48713  -195.83882  -194.89071     0.96298    -0.66272    -3.38184
  n-local   -15.19829   -15.27791   -15.25002    -0.02210     0.00546     0.00741
  augment     0.13144     0.12610     0.12765    -0.00071     0.00041    -0.00246
  Kinetic    99.21641    99.34387    99.26611     0.18601    -0.11126    -0.61240
  Fock        0.00000     0.00000     0.00000     0.00000     0.00000     0.00000
  -------------------------------------------------------------------------------------
  Total      -1.95869    -1.30524    -1.49766     0.21766    -0.13408    -0.20955
  in kB      -2.93624    -1.95667    -2.24512     0.32629    -0.20100    -0.31413
  external pressure =       -2.38 kB  Pullay stress =        0.00 kB

  kinetic pressure (ideal gas correction) =      0.00 kB
  total pressure  =     -2.38 kB
  Total+kin.    -2.936      -1.957      -2.245       0.326      -0.201      -0.314

 VOLUME and BASIS-vectors are now :
 -----------------------------------------------------------------------------
  energy-cutoff  :      400.00
  volume of cell :     1068.77
      direct lattice vectors                 reciprocal lattice vectors
    10.262787087  0.000000000  0.000000000     0.097439418  0.001662593 -0.002861461
    -0.173845524 10.188546129  0.000000000     0.000000000  0.098149430 -0.001014640
     0.298362093  0.105664978 10.221317541     0.000000000  0.000000000  0.097834745

  length of vectors
    10.262787087 10.190029170 10.226217155     0.097495602  0.098154675  0.097834745


 FORCES acting on ions
    electron-ion (+dipol)            ewald-force                    non-local-force                 convergence-correction
 -----------------------------------------------------------------------------------------------
   -.155E+02 0.281E+02 0.398E+02   0.169E+02 -.304E+02 -.432E+02   -.153E+01 0.281E+01 0.398E+01   0.359E-04 -.602E-04 -.871E-04
   0.501E+02 -.570E+01 0.339E+01   -.538E+02 0.608E+01 -.353E+01   0.488E+01 -.565E+00 0.370E+00   -.112E-03 0.975E-05 -.260E-05
   -.223E+02 -.466E+02 0.143E+01   0.244E+02 0.509E+02 -.161E+01   -.227E+01 -.476E+01 0.142E+00   0.525E-04 0.104E-03 -.436E-05
   -.133E+02 0.236E+02 -.438E+02   0.143E+02 -.257E+02 0.477E+02   -.137E+01 0.238E+01 -.443E+01   0.263E-04 -.539E-04 0.101E-03
   0.149E+01 0.772E+00 -.677E+00   -.176E+01 -.870E+00 0.630E+00   -.237E+00 -.173E-01 -.256E+00   -.103E-04 -.520E-05 -.101E-05
 -----------------------------------------------------------------------------------------------
   0.530E+00 0.154E+00 0.192E+00   0.355E-14 0.000E+00 0.000E+00   -.530E+00 -.154E+00 -.193E+00   -.776E-05 -.553E-05 0.595E-05
 
 
 POSITION                                       TOTAL-FORCE (eV/Angst)
 -----------------------------------------------------------------------------------
      5.56290      4.19001      3.67932        -0.187447      0.489836      0.670693
      4.09273      4.93654      4.47821         1.198927     -0.177675      0.229106
      5.70250      5.81169      4.52448        -0.204761     -0.475138     -0.037792
      5.51125      4.29568      5.50782        -0.302398      0.278029     -0.560055
      5.22218      4.80758      4.55652        -0.504549     -0.115240     -0.302245
 -----------------------------------------------------------------------------------
    total drift:                               -0.000228     -0.000189     -0.000292


--------------------------------------------------------------------------------------------------------



  FREE ENERGIE OF THE ION-ELECTRON SYSTEM (eV)
  ---------------------------------------------------
  free  energy   TOTEN  =       -23.97483612 eV

  energy  without entropy=      -23.97483612  energy(sigma->0) =      -23.97483612
 


--------------------------------------------------------------------------------------------------------


    POTLOK:  cpu time    0.1579: real time    0.1634


--------------------------------------------------------------------------------------------------------


 stress matrix after NEB project (eV)
     -1.95869      0.21766     -0.20955
      0.21766     -1.30524     -0.13408
     -0.20955     -0.13408     -1.49766
  FORCES: max atom, RMS     1.233485    0.819403
  FORCE total and by dimension    1.832242    1.198927
  Stress total and by dimension    2.828717    1.958691
           RANDOM_SEED =         581332687                0                0
           RANDOM_SEED =         581332687               30                0
   IONSTEP:  cpu time    0.0038: real time    0.0077

  ENERGY OF THE ELECTRON-ION-THERMOSTAT SYSTEM (eV)
  ---------------------------------------------------
% ion-electron   TOTEN  =       -23.974836  see above
  kinetic energy EKIN   =         0.000910
  kin. lattice  EKIN_LAT=         0.000000  (temperature    1.76 K)
  nose potential ES     =         0.000000
  nose kinetic   EPS    =         0.000000
  ---------------------------------------------------
  total energy   ETOTAL =       -23.973926 eV

  maximum distance moved by ions :      0.29E-03

    WAVPRE:  cpu time    0.0446: real time    0.0456
    FEWALD:  cpu time    0.0003: real time    0.0003
    ORTHCH:  cpu time    0.0094: real time    0.0095
     LOOP+:  cpu time    7.9188: real time    8.2604


--------------------------------------- Iteration      2(   1)  ---------------------------------------


    POTLOK:  cpu time    0.1508: real time    0.1559
    SETDIJ:  cpu time    0.0020: real time    0.0020
     EDDAV:  cpu time    0.1984: real time    0.2027
       DOS:  cpu time    0.0002: real time    0.0002
    CHARGE:  cpu time    0.0189: real time    0.0193
    MIXING:  cpu time    0.0056: real time    0.0075
    --------------------------------------------
      LOOP:  cpu time    0.3760: real time    0.3877

 eigenvalue-minimisations  :    88
 total energy-change (2. order) :-0.7137739E-02  (-0.8184399E-03)
 number of electron       8.0000001 magnetization 
 augmentation part        0.1786317 magnetization 

 Broyden mixing:
  rms(total) = 0.49406E-02    rms(broyden)= 0.49378E-02
  rms(prec ) = 0.66104E-02
  weight for this iteration     100.00

 Free energy of the ion-electron system (eV)
  ---------------------------------------------------
  alpha Z        PSCENC =         0.22666308
  Ewald energy   TEWEN  =       125.71987445
  -Hartree energ DENC   =      -281.95896083
  -exchange      EXHF   =         0.00000000
  -V(xc)+E(xc)   XCENC  =        24.46472202
  PAW double counting   =       431.08733394     -431.85350137
  entropy T*S    EENTRO =        -0.00000000
  eigenvalues    EBANDS =       -88.70985950
  atomic energy  EATOM  =       197.04175453
  Solvation  Ediel_sol  =         0.00000000
  ---------------------------------------------------
  free energy    TOTEN  =       -23.98197368 eV

  energy without entropy =      -23.98197368  energy(sigma->0) =      -23.98197368


--------------------------------------------------------------------------------------------------------




--------------------------------------- Iteration      2(   2)  ---------------------------------------


    POTLOK:  cpu time    0.1538: real time    0.1592
    SETDIJ:  cpu time    0.0021: real time    0.0021
    EDDIAG:  cpu time    0.0379: real time    0.0379
  RMM-DIIS:  cpu time    0.1679: real time    0.1684
    ORTHCH:  cpu time    0.0017: real time    0.0017
       DOS:  cpu time    0.0002: real time    0.0002
    CHARGE:  cpu time    0.0194: real time    0.0194
    MIXING:  cpu time    0.0049: real time    0.0050
    --------------------------------------------
      LOOP:  cpu time    0.3878: real time    0.3938

 eigenvalue-minimisations  :    64
 total energy-change (2. order) : 0.7855526E-04  (-0.2222095E-04)
 number of electron       8.0000001 magnetization 
 augmentation part        0.1785294 magnetization 

 Broyden mixing:
  rms(total) = 0.19938E-02    rms(broyden)= 0.19935E-02
  rms(prec ) = 0.24779E-02
  weight for this iteration     100.00

 eigenvalues of (default mixing * dielectric matrix)
  average eigenvalue GAMMA=   1.5413
  1.5413

 Free energy of the ion-electron system (eV)
  ---------------------------------------------------
  alpha Z        PSCENC =         0.22666308
  Ewald energy   TEWEN  =       125.71987445
  -Hartree energ DENC   =      -282.04968749
  -exchange      EXHF   =         0.00000000
  -V(xc)+E(xc)   XCENC  =        24.46957686
  PAW double counting   =       432.13917276     -432.90639040
  entropy T*S    EENTRO =        -0.00000000
  eigenvalues    EBANDS =       -88.62285893
  atomic energy  EATOM  =       197.04175453
  Solvation  Ediel_sol  =         0.00000000
  ---------------------------------------------------
  free energy    TOTEN  =       -23.98189513 eV

  energy without entropy =      -23.98189513  energy(sigma->0) =      -23.98189513


--------------------------------------------------------------------------------------------------------




--------------------------------------- Iteration      2(   3)  ---------------------------------------


    POTLOK:  cpu time    0.1555: real time    0.1559
    SETDIJ:  cpu time    0.0023: real time    0.0023
    EDDIAG:  cpu time    0.0385: real time    0.0385
  RMM-DIIS:  cpu time    0.1683: real time    0.1687
    ORTHCH:  cpu time    0.0017: real time    0.0024
       DOS:  cpu time    0.0002: real time    0.0002
    CHARGE:  cpu time    0.0193: real time    0.0193
    MIXING:  cpu time    0.0050: real time    0.0050
    --------------------------------------------
      LOOP:  cpu time    0.3907: real time    0.3922

 eigenvalue-minimisations  :    64
 total energy-change (2. order) : 0.5384312E-06  (-0.1051480E-04)
 number of electron       8.0000001 magnetization 
 augmentation part        0.1784511 magnetization 

 Broyden mixing:
  rms(total) = 0.92563E-03    rms(broyden)= 0.92492E-03
  rms(prec ) = 0.10472E-02
  weight for this iteration     100.00

 eigenvalues of (default mixing * dielectric matrix)
  average eigenvalue GAMMA=   1.9015
  1.9015  1.9015

 Free energy of the ion-electron system (eV)
  ---------------------------------------------------
  alpha Z        PSCENC =         0.22666308
  Ewald energy   TEWEN  =       125.71987445
  -Hartree energ DENC   =      -282.09515785
  -exchange      EXHF   =         0.00000000
  -V(xc)+E(xc)   XCENC  =        24.47215933
  PAW double counting   =       432.96108910     -433.72886372
  entropy T*S    EENTRO =        -0.00000000
  eigenvalues    EBANDS =       -88.57941350
  atomic energy  EATOM  =       197.04175453
  Solvation  Ediel_sol  =         0.00000000
  ---------------------------------------------------
  free energy    TOTEN  =       -23.98189459 eV

  energy without entropy =      -23.98189459  energy(sigma->0) =      -23.98189459


--------------------------------------------------------------------------------------------------------




--------------------------------------- Iteration      2(   4)  ---------------------------------------


    POTLOK:  cpu time    0.1555: real time    0.1562
    SETDIJ:  cpu time    0.0019: real time    0.0020
    EDDIAG:  cpu time    0.0381: real time    0.0381
  RMM-DIIS:  cpu time    0.1683: real time    0.1688
    ORTHCH:  cpu time    0.0019: real time    0.0019
       DOS:  cpu time    0.0002: real time    0.0002
    --------------------------------------------
      LOOP:  cpu time    0.3659: real time    0.3672

 eigenvalue-minimisations  :    64
 total energy-change (2. order) :-0.7612855E-06  (-0.9127758E-06)
 number of electron       8.0000001 magnetization 
 augmentation part        0.1784511 magnetization 

 Free energy of the ion-electron system (eV)
  ---------------------------------------------------
  alpha Z        PSCENC =         0.22666308
  Ewald energy   TEWEN  =       125.71987445
  -Hartree energ DENC   =      -282.07591943
  -exchange      EXHF   =         0.00000000
  -V(xc)+E(xc)   XCENC  =        24.47151961
  PAW double counting   =       433.32577613     -434.09328663
  entropy T*S    EENTRO =        -0.00000000
  eigenvalues    EBANDS =       -88.59827710
  atomic energy  EATOM  =       197.04175453
  Solvation  Ediel_sol  =         0.00000000
  ---------------------------------------------------
  free energy    TOTEN  =       -23.98189535 eV

  energy without entropy =      -23.98189535  energy(sigma->0) =      -23.98189535


--------------------------------------------------------------------------------------------------------




 average (electrostatic) potential at core
  the test charge radii are     0.5201  0.6991
  (the norm of the test charge is              1.0000)
       1 -41.3366       2 -41.2591       3 -41.4184       4 -41.4063       5 -58.1294
 
 
 
 E-fermi :  -8.0955     XC(G=0):  -0.6943     alpha+bet : -0.1971


 k-point     1 :       0.2500    0.2500    0.2500
  band No.  band energies     occupation 
      1     -16.7040      2.00000
      2      -9.2838      2.00000
      3      -9.2364      2.00000
      4      -9.0749      2.00000
      5      -0.3664      0.00000
      6       0.4978      0.00000
      7       0.6245      0.00000
      8       0.6534      0.00000

 k-point     2 :      -0.2500    0.2500    0.2500
  band No.  band energies     occupation 
      1     -16.7040      2.00000
      2      -9.2837      2.00000
      3      -9.2365      2.00000
      4      -9.0749      2.00000
      5      -0.3643      0.00000
      6       0.4899      0.00000
      7       0.6136      0.00000
      8       0.6516      0.00000

 k-point     3 :       0.2500   -0.2500    0.2500
  band No.  band energies     occupation 
      1     -16.7040      2.00000
      2      -9.2838      2.00000
      3      -9.2365      2.00000
      4      -9.0749      2.00000
      5      -0.3675      0.00000
      6       0.4958      0.00000
      7       0.6291      0.00000
      8       0.6553      0.00000

 k-point     4 :      -0.2500   -0.2500    0.2500
  band No.  band energies     occupation 
      1     -16.7040      2.00000
      2      -9.2838      2.00000
      3      -9.2364      2.00000
      4      -9.0749      2.00000
      5      -0.3599      0.00000
      6       0.4858      0.00000
      7       0.6056      0.00000
      8       0.6333      0.00000


--------------------------------------------------------------------------------------------------------


 soft charge-density along one line, spin component           1
         0         1         2         3         4         5         6         7         8         9
 total charge-density along one line
 
 pseudopotential strength for first ion, spin component:           1
 -2.340  -4.031  -0.001  -0.001   0.001
 -4.031  -6.860  -0.003  -0.004   0.002
 -0.001  -0.003  -0.339   0.002  -0.001
 -0.001  -0.004   0.002  -0.337  -0.001
  0.001   0.002  -0.001  -0.001  -0.340
 total augmentation occupancy for first ion, spin component:           1
  3.447  -0.623   0.220   0.313  -0.121
 -0.623   0.126  -0.041  -0.058   0.023
  0.220  -0.041   0.020   0.017  -0.006
  0.313  -0.058   0.017   0.032  -0.009
 -0.121   0.023  -0.006  -0.009   0.012


------------------------ aborting loop because EDIFF is reached ----------------------------------------


    CHARGE:  cpu time    0.0195: real time    0.0195
    FORLOC:  cpu time    0.0145: real time    0.0145
    FORNL :  cpu time    0.0226: real time    0.0227
    STRESS:  cpu time    0.1672: real time    0.1674
    FORCOR:  cpu time    0.1524: real time    0.1527
    FORHAR:  cpu time    0.0488: real time    0.0489
    MIXING:  cpu time    0.0064: real time    0.0064
    OFIELD:  cpu time    0.0000: real time    0.0000

  FORCE on cell =-STRESS in cart. coord.  units (eV):
  Direction    XX          YY          ZZ          XY          YZ          ZX
  --------------------------------------------------------------------------------------
  Alpha Z     0.22666     0.22666     0.22666
  Ewald      40.66412    42.87766    42.17805    -0.47771     0.33539     2.67646
  Hartree    93.69693    94.38823    94.01313    -0.43280     0.29134     1.04105
  E(xc)     -26.91787   -26.91948   -26.91868    -0.00360     0.00268     0.01249
  Local    -193.75818  -196.08553  -195.14456     0.96029    -0.65457    -3.33710
  n-local   -15.24768   -15.32210   -15.29587    -0.02073     0.00478     0.00732
  augment     0.13045     0.12534     0.12681    -0.00064     0.00038    -0.00245
  Kinetic    99.35801    99.47263    99.39914     0.18030    -0.10672    -0.60201
  Fock        0.00000     0.00000     0.00000     0.00000     0.00000     0.00000
[...]
      5.69165      5.78489      4.52144         0.179088      0.328748     -0.019248
      5.49169      4.31060      5.47691         0.084829     -0.234900      0.434625
      5.21983      4.80715      4.55486         0.486980      0.165836      0.077765
 -----------------------------------------------------------------------------------
    total drift:                               -0.000315      0.000045      0.000170


--------------------------------------------------------------------------------------------------------



  FREE ENERGIE OF THE ION-ELECTRON SYSTEM (eV)
  ---------------------------------------------------
  free  energy   TOTEN  =       -24.00308237 eV

  energy  without entropy=      -24.00308237  energy(sigma->0) =      -24.00308237
 
 d Force =-0.1396852E-01[-0.170E-01,-0.110E-01]  d Energy =-0.1394406E-01-0.245E-04
 d Force =-0.1454899E+01[-0.146E+01,-0.145E+01]  d Ewald  =-0.1454872E+01-0.272E-04


--------------------------------------------------------------------------------------------------------


    POTLOK:  cpu time    0.1475: real time    0.1477


--------------------------------------------------------------------------------------------------------


 stress matrix after NEB project (eV)
      0.84411     -0.12953     -0.07546
     -0.12953      0.26291      0.06538
     -0.07546      0.06538      0.42497
  FORCES: max atom, RMS     1.003800    0.650486
  FORCE total and by dimension    1.454532    0.998986
  Stress total and by dimension    1.007840    0.844114
           RANDOM_SEED =         581332687               30                0
   IONSTEP:  cpu time    0.0002: real time    0.0002

  ENERGY OF THE ELECTRON-ION-THERMOSTAT SYSTEM (eV)
  ---------------------------------------------------
% ion-electron   TOTEN  =       -24.003082  see above
  kinetic energy EKIN   =         0.028627
  kin. lattice  EKIN_LAT=         0.000000  (temperature   55.37 K)
  nose potential ES     =         0.000000
  nose kinetic   EPS    =         0.000000
  ---------------------------------------------------
  total energy   ETOTAL =       -23.974455 eV

  maximum distance moved by ions :      0.69E-03

    WAVPRE:  cpu time    0.0507: real time    0.0511
    FEWALD:  cpu time    0.0005: real time    0.0005
    ORTHCH:  cpu time    0.0097: real time    0.0097
 Prediction of Wavefunctions ALPHA= 2.244 BETA=-1.284
     LOOP+:  cpu time    2.3267: real time    2.3778


--------------------------------------- Iteration     10(   1)  ---------------------------------------


    POTLOK:  cpu time    0.1493: real time    0.1496
    SETDIJ:  cpu time    0.0023: real time    0.0023
     EDDAV:  cpu time    0.2157: real time    0.2163
       DOS:  cpu time    0.0002: real time    0.0002
    CHARGE:  cpu time    0.0184: real time    0.0185
    MIXING:  cpu time    0.0049: real time    0.0049
    --------------------------------------------
      LOOP:  cpu time    0.3910: real time    0.3920

 eigenvalue-minimisations  :    96
 total energy-change (2. order) : 0.1420663E-01  (-0.9484278E-04)
 number of electron       8.0000002 magnetization 
 augmentation part        0.1917659 magnetization 

 Broyden mixing:
  rms(total) = 0.57761E-03    rms(broyden)= 0.57603E-03
  rms(prec ) = 0.65233E-03
  weight for this iteration     100.00

 Free energy of the ion-electron system (eV)
  ---------------------------------------------------
  alpha Z        PSCENC =         0.22666308
  Ewald energy   TEWEN  =       136.94601683
  -Hartree energ DENC   =      -291.96742276
  -exchange      EXHF   =         0.00000000
  -V(xc)+E(xc)   XCENC  =        24.99411737
  PAW double counting   =       500.93313585     -501.74030461
  entropy T*S    EENTRO =        -0.00000000
  eigenvalues    EBANDS =       -90.42283585
  atomic energy  EATOM  =       197.04175453
  Solvation  Ediel_sol  =         0.00000000
  ---------------------------------------------------
  free energy    TOTEN  =       -23.98887557 eV

  energy without entropy =      -23.98887557  energy(sigma->0) =      -23.98887557


--------------------------------------------------------------------------------------------------------




--------------------------------------- Iteration     10(   2)  ---------------------------------------


    POTLOK:  cpu time    0.1486: real time    0.1489
    SETDIJ:  cpu time    0.0022: real time    0.0022
    EDDIAG:  cpu time    0.0387: real time    0.0387
  RMM-DIIS:  cpu time    0.1662: real time    0.1672
    ORTHCH:  cpu time    0.0019: real time    0.0020
       DOS:  cpu time    0.0002: real time    0.0002
    CHARGE:  cpu time    0.0192: real time    0.0193
    MIXING:  cpu time    0.0050: real time    0.0050
    --------------------------------------------
      LOOP:  cpu time    0.3821: real time    0.3835

 eigenvalue-minimisations  :    64
 total energy-change (2. order) :-0.2313938E-05  (-0.2099008E-05)
 number of electron       8.0000002 magnetization 
 augmentation part        0.1917736 magnetization 

 Broyden mixing:
  rms(total) = 0.19868E-03    rms(broyden)= 0.19800E-03
  rms(prec ) = 0.24214E-03
  weight for this iteration     100.00

 eigenvalues of (default mixing * dielectric matrix)
  average eigenvalue GAMMA=   1.0791
  1.0791

 Free energy of the ion-electron system (eV)
  ---------------------------------------------------
  alpha Z        PSCENC =         0.22666308
  Ewald energy   TEWEN  =       136.94601683
  -Hartree energ DENC   =      -291.96175689
  -exchange      EXHF   =         0.00000000
  -V(xc)+E(xc)   XCENC  =        24.99384734
  PAW double counting   =       501.00484545     -501.81191068
  entropy T*S    EENTRO =        -0.00000000
  eigenvalues    EBANDS =       -90.42833755
  atomic energy  EATOM  =       197.04175453
  Solvation  Ediel_sol  =         0.00000000
  ---------------------------------------------------
  free energy    TOTEN  =       -23.98887788 eV

  energy without entropy =      -23.98887788  energy(sigma->0) =      -23.98887788


--------------------------------------------------------------------------------------------------------




--------------------------------------- Iteration     10(   3)  ---------------------------------------


    POTLOK:  cpu time    0.1510: real time    0.1514
    SETDIJ:  cpu time    0.0021: real time    0.0021
    EDDIAG:  cpu time    0.0413: real time    0.0420
  RMM-DIIS:  cpu time    0.1375: real time    0.1382
    ORTHCH:  cpu time    0.0018: real time    0.0018
       DOS:  cpu time    0.0002: real time    0.0002
    CHARGE:  cpu time    0.0193: real time    0.0193
    MIXING:  cpu time    0.0050: real time    0.0050
    --------------------------------------------
      LOOP:  cpu time    0.3582: real time    0.3600

 eigenvalue-minimisations  :    48
 total energy-change (2. order) :-0.8295656E-06  (-0.6644765E-07)
 number of electron       8.0000002 magnetization 
 augmentation part        0.1917763 magnetization 

 Broyden mixing:
  rms(total) = 0.87449E-04    rms(broyden)= 0.87322E-04
  rms(prec ) = 0.98929E-04
  weight for this iteration     100.00

 eigenvalues of (default mixing * dielectric matrix)
  average eigenvalue GAMMA=   1.3468
  1.3468  1.3468

 Free energy of the ion-electron system (eV)
  ---------------------------------------------------
  alpha Z        PSCENC =         0.22666308
  Ewald energy   TEWEN  =       136.94601683
  -Hartree energ DENC   =      -291.95923095
  -exchange      EXHF   =         0.00000000
  -V(xc)+E(xc)   XCENC  =        24.99374354
  PAW double counting   =       500.99062187     -501.79764202
  entropy T*S    EENTRO =        -0.00000000
  eigenvalues    EBANDS =       -90.43080558
  atomic energy  EATOM  =       197.04175453
  Solvation  Ediel_sol  =         0.00000000
  ---------------------------------------------------
  free energy    TOTEN  =       -23.98887871 eV

  energy without entropy =      -23.98887871  energy(sigma->0) =      -23.98887871


--------------------------------------------------------------------------------------------------------




--------------------------------------- Iteration     10(   4)  ---------------------------------------


    POTLOK:  cpu time    0.1519: real time    0.1523
    SETDIJ:  cpu time    0.0022: real time    0.0022
    EDDIAG:  cpu time    0.0388: real time    0.0388
  RMM-DIIS:  cpu time    0.1366: real time    0.1368
    ORTHCH:  cpu time    0.0020: real time    0.0020
       DOS:  cpu time    0.0002: real time    0.0002
    --------------------------------------------
      LOOP:  cpu time    0.3317: real time    0.3324

 eigenvalue-minimisations  :    48
 total energy-change (2. order) :-0.7934436E-06  (-0.2655913E-07)
 number of electron       8.0000002 magnetization 
 augmentation part        0.1917763 magnetization 

 Free energy of the ion-electron system (eV)
  ---------------------------------------------------
  alpha Z        PSCENC =         0.22666308
  Ewald energy   TEWEN  =       136.94601683
  -Hartree energ DENC   =      -291.95866357
  -exchange      EXHF   =         0.00000000
  -V(xc)+E(xc)   XCENC  =        24.99372759
  PAW double counting   =       500.96739574     -501.77439911
  entropy T*S    EENTRO =        -0.00000000
  eigenvalues    EBANDS =       -90.43137460
  atomic energy  EATOM  =       197.04175453
  Solvation  Ediel_sol  =         0.00000000
  ---------------------------------------------------
  free energy    TOTEN  =       -23.98887950 eV

  energy without entropy =      -23.98887950  energy(sigma->0) =      -23.98887950


--------------------------------------------------------------------------------------------------------




 average (electrostatic) potential at core
  the test charge radii are     0.5201  0.6991
  (the norm of the test charge is              1.0000)
       1 -41.6578       2 -41.7655       3 -41.5715       4 -41.6193       5 -57.8329
 
 
 
 E-fermi :  -8.3999     XC(G=0):  -0.6471     alpha+bet : -0.1971


 k-point     1 :       0.2500    0.2500    0.2500
  band No.  band energies     occupation 
      1     -17.0658      2.00000
      2      -9.4375      2.00000
      3      -9.3748      2.00000
      4      -9.3375      2.00000
      5      -0.2877      0.00000
      6       0.5451      0.00000
      7       0.6674      0.00000
      8       0.6977      0.00000

 k-point     2 :      -0.2500    0.2500    0.2500
  band No.  band energies     occupation 
      1     -17.0658      2.00000
      2      -9.4374      2.00000
      3      -9.3748      2.00000
      4      -9.3376      2.00000
      5      -0.2857      0.00000
      6       0.5388      0.00000
      7       0.6562      0.00000
      8       0.6974      0.00000

 k-point     3 :       0.2500   -0.2500    0.2500
  band No.  band energies     occupation 
      1     -17.0658      2.00000
      2      -9.4376      2.00000
      3      -9.3748      2.00000
      4      -9.3376      2.00000
      5      -0.2891      0.00000
      6       0.5449      0.00000
      7       0.6712      0.00000
      8       0.7011      0.00000

 k-point     4 :      -0.2500   -0.2500    0.2500
  band No.  band energies     occupation 
      1     -17.0658      2.00000
      2      -9.4375      2.00000
      3      -9.3748      2.00000
      4      -9.3376      2.00000
      5      -0.2804      0.00000
      6       0.5289      0.00000
      7       0.6506      0.00000
      8       0.6792      0.00000


--------------------------------------------------------------------------------------------------------


 soft charge-density along one line, spin component           1
         0         1         2         3         4         5         6         7         8         9
 total charge-density along one line
 
 pseudopotential strength for first ion, spin component:           1
 -2.342  -4.036  -0.001  -0.001   0.001
 -4.036  -6.870  -0.003  -0.005   0.002
 -0.001  -0.003  -0.336   0.002  -0.001
 -0.001  -0.005   0.002  -0.334  -0.001
  0.001   0.002  -0.001  -0.001  -0.337
 total augmentation occupancy for first ion, spin component:           1
  3.630  -0.649   0.250   0.356  -0.143
 -0.649   0.131  -0.046  -0.065   0.026
  0.250  -0.046   0.024   0.020  -0.008
  0.356  -0.065   0.020   0.039  -0.012
 -0.143   0.026  -0.008  -0.012   0.015


------------------------ aborting loop because EDIFF is reached ----------------------------------------


    CHARGE:  cpu time    0.0193: real time    0.0193
    FORLOC:  cpu time    0.0143: real time    0.0143
    FORNL :  cpu time    0.0225: real time    0.0225
    STRESS:  cpu time    0.2373: real time    0.2375
    FORCOR:  cpu time    0.1519: real time    0.1522
    FORHAR:  cpu time    0.0494: real time    0.0494
    MIXING:  cpu time    0.0052: real time    0.0053
    OFIELD:  cpu time    0.0001: real time    0.0001

  FORCE on cell =-STRESS in cart. coord.  units (eV):
  Direction    XX          YY          ZZ          XY          YZ          ZX
  --------------------------------------------------------------------------------------
  Alpha Z     0.22666     0.22666     0.22666
  Ewald      45.69162    45.65389    45.60047    -0.65745     0.22446     1.00040
  Hartree    96.74085    97.84875    97.36999    -0.23406     0.11501     0.57736
  E(xc)     -27.48619   -27.48147   -27.48227     0.00033    -0.00066     0.00312
  Local    -200.54697  -202.17573  -201.45813     0.72161    -0.28308    -1.47659
  n-local   -16.51223   -16.44087   -16.45914     0.01724    -0.01160     0.00382
  augment     0.09985     0.10697     0.10467     0.00191    -0.00071    -0.00073
  Kinetic   102.94003   102.69588   102.72840    -0.01804     0.04578    -0.16184
  Fock        0.00000     0.00000     0.00000     0.00000     0.00000     0.00000
  -------------------------------------------------------------------------------------
  Total       1.15362     0.43409     0.63065    -0.16845     0.08919    -0.05447
  in kB       1.72938     0.65073     0.94540    -0.25253     0.13370    -0.08165
  external pressure =        1.11 kB  Pullay stress =        0.00 kB

  kinetic pressure (ideal gas correction) =      0.02 kB
  total pressure  =      1.13 kB
  Total+kin.     1.761       0.663       0.966      -0.259       0.137      -0.063

 VOLUME and BASIS-vectors are now :
 -----------------------------------------------------------------------------
  energy-cutoff  :      400.00
  volume of cell :     1068.77
      direct lattice vectors                 reciprocal lattice vectors
    10.262787087  0.000000000  0.000000000     0.097439418  0.001662593 -0.002861461
    -0.173845524 10.188546129  0.000000000     0.000000000  0.098149430 -0.001014640
     0.298362093  0.105664978 10.221317541     0.000000000  0.000000000  0.097834745

  length of vectors
    10.262787087 10.190029170 10.226217155     0.097495602  0.098154675  0.097834745


 FORCES acting on ions
    electron-ion (+dipol)            ewald-force                    non-local-force                 convergence-correction
 -----------------------------------------------------------------------------------------------
   -.170E+02 0.297E+02 0.422E+02   0.191E+02 -.334E+02 -.474E+02   -.182E+01 0.319E+01 0.454E+01   0.425E-04 -.542E-04 -.826E-04
   0.544E+02 -.604E+01 0.290E+01   -.617E+02 0.684E+01 -.325E+01   0.598E+01 -.669E+00 0.334E+00   -.665E-04 0.115E-04 0.246E-04
   -.234E+02 -.485E+02 0.166E+01   0.261E+02 0.540E+02 -.185E+01   -.247E+01 -.511E+01 0.177E+00   0.486E-04 0.102E-03 0.357E-05
   -.135E+02 0.248E+02 -.461E+02   0.151E+02 -.278E+02 0.516E+02   -.144E+01 0.264E+01 -.491E+01   0.895E-05 -.340E-04 0.925E-04
   -.108E+01 -.197E+00 -.792E+00   0.141E+01 0.283E+00 0.920E+00   0.277E+00 0.107E+00 -.227E-02   -.388E-04 0.414E-04 0.951E-04
 -----------------------------------------------------------------------------------------------
   -.532E+00 -.161E+00 -.140E+00   -.711E-14 0.355E-14 -.711E-14   0.531E+00 0.161E+00 0.140E+00   -.527E-05 0.663E-04 0.133E-03
 
 
 POSITION                                       TOTAL-FORCE (eV/Angst)
 -----------------------------------------------------------------------------------
      5.55441      4.22066      3.72061         0.291195     -0.454021     -0.638903
      4.16616      4.92434      4.49764        -1.259665      0.131301     -0.018595
      5.69077      5.78203      4.52076         0.220198      0.420084     -0.013094
      5.48863      4.31189      5.47393         0.135663     -0.290681      0.545134
      5.21963      4.80716      4.55459         0.612280      0.193409      0.125567
 -----------------------------------------------------------------------------------
    total drift:                               -0.000330      0.000092      0.000108


--------------------------------------------------------------------------------------------------------



  FREE ENERGIE OF THE ION-ELECTRON SYSTEM (eV)
  ---------------------------------------------------
  free  energy   TOTEN  =       -23.98887950 eV

  energy  without entropy=      -23.98887950  energy(sigma->0) =      -23.98887950
 
 d Force =-0.1421400E-01[-0.160E-01,-0.125E-01]  d Energy =-0.1420287E-01-0.111E-04
 d Force =-0.1096563E+01[-0.110E+01,-0.109E+01]  d Ewald  =-0.1096553E+01-0.963E-05


--------------------------------------------------------------------------------------------------------


    POTLOK:  cpu time    0.1570: real time    0.1573


--------------------------------------------------------------------------------------------------------


 stress matrix after NEB project (eV)
      1.15362     -0.16845     -0.05447
     -0.16845      0.43409      0.08919
     -0.05447      0.08919      0.63065
  FORCES: max atom, RMS     1.266626    0.819357
  FORCE total and by dimension    1.832138    1.259665
  Stress total and by dimension    1.412655    1.153624
           RANDOM_SEED =         581332687               30                0
   IONSTEP:  cpu time    0.0002: real time    0.0002

  ENERGY OF THE ELECTRON-ION-THERMOSTAT SYSTEM (eV)
  ---------------------------------------------------
% ion-electron   TOTEN  =       -23.988880  see above
  kinetic energy EKIN   =         0.014744
  kin. lattice  EKIN_LAT=         0.000000  (temperature   28.52 K)
  nose potential ES     =         0.000000
  nose kinetic   EPS    =         0.000000
  ---------------------------------------------------
  total energy   ETOTAL =       -23.974135 eV

  maximum distance moved by ions :      0.45E-03


 mean value of Nose-termostat <S>:     1.000 mean value of <T> :    57.588
 mean temperature <T/S>/<1/S>  :    57.588

    WAVPRE:  cpu time    0.0543: real time    0.0546
    FEWALD:  cpu time    0.0005: real time    0.0005
    ORTHCH:  cpu time    0.0093: real time    0.0093
 Prediction of Wavefunctions ALPHA= 2.155 BETA=-1.182
    POTLOK:  cpu time    0.1527: real time    0.1530
    EDDIAG:  cpu time    0.0384: real time    0.0386
     LOOP+:  cpu time    2.3804: real time    2.3872
    4ORBIT:  cpu time    0.0000: real time    0.0007

 total amount of memory used by VASP MPI-rank0    56871. kBytes
=======================================================================

   base      :      30000. kBytes
   nonl-proj :       2884. kBytes
   fftplans  :       8579. kBytes
   grid      :      13527. kBytes
   one-center:          6. kBytes
   wavefun   :       1875. kBytes
 
  
  
 General timing and accounting informations for this job:
 ========================================================
  
                  Total CPU time used (sec):       31.729
                            User time (sec):       29.411
                          System time (sec):        2.318
                         Elapsed time (sec):       32.831
  
                   Maximum memory used (kb):      178468.
                   Average memory used (kb):           0.
  
                          Minor page faults:       273500
                          Major page faults:          140
                 Voluntary context switches:          590
