unknown system                          
           1
    10.262787    0.000000    0.000000
    -0.173846   10.188546    0.000000
     0.298362    0.105665   10.221318
   H    C 
   4   1
Direct configuration=     1
   0.53848335  0.40751408  0.35996488
   0.39418635  0.47997450  0.43812483
   0.55236414  0.56582354  0.44265156
   0.52839424  0.41603004  0.53885573
   0.50380101  0.46723756  0.44578592
Direct configuration=     2
   0.53843741  0.40762884  0.36012298
   0.39446523  0.47993228  0.43817890
   0.55231368  0.56571094  0.44264302
   0.52832816  0.41609691  0.53872311
   0.50379132  0.46723533  0.44578000
Direct configuration=     3
   0.53834889  0.40785048  0.36042882
   0.39500565  0.47984971  0.43828528
   0.55221722  0.56549354  0.44262564
   0.52819906  0.41622611  0.53846750
   0.50377248  0.46723109  0.44576841
Direct configuration=     4
   0.53822600  0.40816411  0.36086138
   0.39577144  0.47973138  0.43844050
   0.55208225  0.56518638  0.44259960
   0.52801301  0.41640796  0.53810716
   0.50374568  0.46722527  0.44575164
Direct configuration=     5
   0.53808064  0.40854830  0.36139033
   0.39670945  0.47958404  0.43863943
   0.55191938  0.56481083  0.44256516
   0.52777877  0.41662862  0.53766820
   0.50371275  0.46721844  0.44573046
Direct configuration=     6
   0.53792774  0.40897592  0.36197739
   0.39775106  0.47941640  0.43887546
   0.55174174  0.56439344  0.44252272
   0.52750737  0.41687081  0.53718325
   0.50367614  0.46721138  0.44570584
Direct configuration=     7
   0.53778450  0.40941569  0.36257845
   0.39881518  0.47923877  0.43914081
   0.55156421  0.56396435  0.44247282
   0.52721159  0.41711479  0.53668960
   0.50363888  0.46720497  0.44567896
Direct configuration=     8
   0.53766903  0.40983426  0.36314658
   0.39981330  0.47906244  0.43942685
   0.55140225  0.56355510  0.44241621
   0.52690517  0.41733985  0.53622651
   0.50360439  0.46720014  0.44565111
Direct configuration=     9
   0.53759885  0.41019879  0.36363580
   0.40065664  0.47889878  0.43972470
   0.55127081  0.56319645  0.44235386
   0.52660190  0.41752587  0.53583224
   0.50357621  0.46719779  0.44562360
Direct configuration=    10
   0.53758899  0.41048007  0.36400542
   0.40126547  0.47875810  0.44002580
   0.55118291  0.56291567  0.44228696
   0.52631463  0.41765522  0.53554054
   0.50355757  0.46719869  0.44559761
