   5   5   0   0
  0.2065463E+03  0.1027150E-08  0.9770456E-09  0.1029291E-08  0.5000000E-15
  1.000000000000000E-004
  CAR 
 unknown system                          
      2.72030472    -18.98553225  301     -8.27717803      1.00000000
    -18.986  0.0000E+00  0.0000E+00
    -18.913  0.0000E+00  0.0000E+00
    -18.841  0.0000E+00  0.0000E+00
    -18.768  0.0000E+00  0.0000E+00
    -18.696  0.0000E+00  0.0000E+00
    -18.624  0.0000E+00  0.0000E+00
    -18.551  0.0000E+00  0.0000E+00
    -18.479  0.0000E+00  0.0000E+00
    -18.407  0.0000E+00  0.0000E+00
    -18.334  0.0000E+00  0.0000E+00
    -18.262  0.0000E+00  0.0000E+00
    -18.190  0.0000E+00  0.0000E+00
    -18.117  0.1280E-13  0.9215E-15
    -18.045  0.7005E-12  0.5134E-13
    -17.973  0.3018E-10  0.2224E-11
    -17.900  0.1007E-08  0.7469E-10
    -17.828  0.2601E-07  0.1947E-08
    -17.756  0.5204E-06  0.3940E-07
    -17.683  0.8067E-05  0.6200E-06
    -17.611  0.9692E-04  0.7595E-05
    -17.538  0.9026E-03  0.7255E-04
    -17.466  0.6518E-02  0.5416E-03
    -17.394  0.3651E-01  0.3169E-02
    -17.321  0.1587E+00  0.1459E-01
    -17.249  0.5351E+00  0.5308E-01
    -17.177  0.1401E+01  0.1539E+00
    -17.104  0.2847E+01  0.3586E+00
    -17.032  0.4493E+01  0.6818E+00
    -16.960  0.5508E+01  0.1078E+01
    -16.887  0.5246E+01  0.1455E+01
    -16.815  0.3882E+01  0.1735E+01
    -16.743  0.2232E+01  0.1895E+01
    -16.670  0.9974E+00  0.1967E+01
    -16.598  0.3463E+00  0.1992E+01
    -16.526  0.9346E-01  0.1998E+01
    -16.453  0.1960E-01  0.2000E+01
    -16.381  0.3195E-02  0.2000E+01
    -16.308  0.4048E-03  0.2000E+01
    -16.236  0.3984E-04  0.2000E+01
    -16.164  0.3048E-05  0.2000E+01
    -16.091  0.1812E-06  0.2000E+01
    -16.019  0.8366E-08  0.2000E+01
    -15.947  0.3002E-09  0.2000E+01
    -15.874  0.8366E-11  0.2000E+01
    -15.802  0.1812E-12  0.2000E+01
    -15.730  0.3020E-14  0.2000E+01
    -15.657  0.0000E+00  0.2000E+01
    -15.585  0.0000E+00  0.2000E+01
    -15.513  0.0000E+00  0.2000E+01
    -15.440  0.0000E+00  0.2000E+01
    -15.368  0.0000E+00  0.2000E+01
    -15.296  0.0000E+00  0.2000E+01
    -15.223  0.0000E+00  0.2000E+01
    -15.151  0.0000E+00  0.2000E+01
    -15.078  0.0000E+00  0.2000E+01
    -15.006  0.0000E+00  0.2000E+01
    -14.934  0.0000E+00  0.2000E+01
    -14.861  0.0000E+00  0.2000E+01
    -14.789  0.0000E+00  0.2000E+01
    -14.717  0.0000E+00  0.2000E+01
    -14.644  0.0000E+00  0.2000E+01
    -14.572  0.0000E+00  0.2000E+01
    -14.500  0.0000E+00  0.2000E+01
    -14.427  0.0000E+00  0.2000E+01
    -14.355  0.0000E+00  0.2000E+01
    -14.283  0.0000E+00  0.2000E+01
    -14.210  0.0000E+00  0.2000E+01
    -14.138  0.0000E+00  0.2000E+01
    -14.066  0.0000E+00  0.2000E+01
    -13.993  0.0000E+00  0.2000E+01
    -13.921  0.0000E+00  0.2000E+01
    -13.848  0.0000E+00  0.2000E+01
    -13.776  0.0000E+00  0.2000E+01
    -13.704  0.0000E+00  0.2000E+01
    -13.631  0.0000E+00  0.2000E+01
    -13.559  0.0000E+00  0.2000E+01
    -13.487  0.0000E+00  0.2000E+01
    -13.414  0.0000E+00  0.2000E+01
    -13.342  0.0000E+00  0.2000E+01
    -13.270  0.0000E+00  0.2000E+01
    -13.197  0.0000E+00  0.2000E+01
    -13.125  0.0000E+00  0.2000E+01
    -13.053  0.0000E+00  0.2000E+01
    -12.980  0.0000E+00  0.2000E+01
    -12.908  0.0000E+00  0.2000E+01
    -12.836  0.0000E+00  0.2000E+01
    -12.763  0.0000E+00  0.2000E+01
    -12.691  0.0000E+00  0.2000E+01
    -12.618  0.0000E+00  0.2000E+01
    -12.546  0.0000E+00  0.2000E+01
    -12.474  0.0000E+00  0.2000E+01
    -12.401  0.0000E+00  0.2000E+01
    -12.329  0.0000E+00  0.2000E+01
    -12.257  0.0000E+00  0.2000E+01
    -12.184  0.0000E+00  0.2000E+01
    -12.112  0.0000E+00  0.2000E+01
    -12.040  0.0000E+00  0.2000E+01
    -11.967  0.0000E+00  0.2000E+01
    -11.895  0.0000E+00  0.2000E+01
    -11.823  0.0000E+00  0.2000E+01
    -11.750  0.0000E+00  0.2000E+01
    -11.678  0.0000E+00  0.2000E+01
    -11.606  0.0000E+00  0.2000E+01
    -11.533  0.0000E+00  0.2000E+01
    -11.461  0.0000E+00  0.2000E+01
    -11.388  0.0000E+00  0.2000E+01
    -11.316  0.0000E+00  0.2000E+01
    -11.244  0.0000E+00  0.2000E+01
    -11.171  0.0000E+00  0.2000E+01
    -11.099  0.0000E+00  0.2000E+01
    -11.027  0.0000E+00  0.2000E+01
    -10.954  0.0000E+00  0.2000E+01
    -10.882  0.0000E+00  0.2000E+01
    -10.810  0.0000E+00  0.2000E+01
    -10.737  0.0000E+00  0.2000E+01
    -10.665  0.0000E+00  0.2000E+01
    -10.593  0.4637E-14  0.2000E+01
    -10.520  0.3001E-12  0.2000E+01
    -10.448  0.1399E-10  0.2000E+01
    -10.376  0.5067E-09  0.2000E+01
    -10.303  0.1425E-07  0.2000E+01
    -10.231  0.3113E-06  0.2000E+01
    -10.158  0.5282E-05  0.2000E+01
    -10.086  0.6964E-04  0.2000E+01
    -10.014  0.7137E-03  0.2000E+01
     -9.941  0.5686E-02  0.2000E+01
     -9.869  0.3524E-01  0.2003E+01
     -9.797  0.1699E+00  0.2015E+01
     -9.724  0.6382E+00  0.2061E+01
     -9.652  0.1870E+01  0.2196E+01
     -9.580  0.4283E+01  0.2504E+01
     -9.507  0.7717E+01  0.3059E+01
     -9.435  0.1106E+02  0.3854E+01
     -9.363  0.1289E+02  0.4781E+01
     -9.290  0.1266E+02  0.5692E+01
     -9.218  0.1095E+02  0.6479E+01
     -9.146  0.8586E+01  0.7097E+01
     -9.073  0.6037E+01  0.7531E+01
     -9.001  0.3655E+01  0.7794E+01
     -8.928  0.1828E+01  0.7925E+01
     -8.856  0.7341E+00  0.7978E+01
     -8.784  0.2332E+00  0.7995E+01
     -8.711  0.5813E-01  0.7999E+01
     -8.639  0.1133E-01  0.8000E+01
     -8.567  0.1725E-02  0.8000E+01
     -8.494  0.2048E-03  0.8000E+01
     -8.422  0.1896E-04  0.8000E+01
     -8.350  0.1369E-05  0.8000E+01
     -8.277  0.7697E-07  0.8000E+01
     -8.205  0.3373E-08  0.8000E+01
     -8.133  0.1151E-09  0.8000E+01
     -8.060  0.3060E-11  0.8000E+01
     -7.988  0.6372E-13  0.8000E+01
     -7.916  0.6202E-15  0.8000E+01
     -7.843  0.0000E+00  0.8000E+01
     -7.771  0.0000E+00  0.8000E+01
     -7.698  0.0000E+00  0.8000E+01
     -7.626  0.0000E+00  0.8000E+01
     -7.554  0.0000E+00  0.8000E+01
     -7.481  0.0000E+00  0.8000E+01
     -7.409  0.0000E+00  0.8000E+01
     -7.337  0.0000E+00  0.8000E+01
     -7.264  0.0000E+00  0.8000E+01
     -7.192  0.0000E+00  0.8000E+01
     -7.120  0.0000E+00  0.8000E+01
     -7.047  0.0000E+00  0.8000E+01
     -6.975  0.0000E+00  0.8000E+01
     -6.903  0.0000E+00  0.8000E+01
     -6.830  0.0000E+00  0.8000E+01
     -6.758  0.0000E+00  0.8000E+01
     -6.686  0.0000E+00  0.8000E+01
     -6.613  0.0000E+00  0.8000E+01
     -6.541  0.0000E+00  0.8000E+01
     -6.468  0.0000E+00  0.8000E+01
     -6.396  0.0000E+00  0.8000E+01
     -6.324  0.0000E+00  0.8000E+01
     -6.251  0.0000E+00  0.8000E+01
     -6.179  0.0000E+00  0.8000E+01
     -6.107  0.0000E+00  0.8000E+01
     -6.034  0.0000E+00  0.8000E+01
     -5.962  0.0000E+00  0.8000E+01
     -5.890  0.0000E+00  0.8000E+01
     -5.817  0.0000E+00  0.8000E+01
     -5.745  0.0000E+00  0.8000E+01
     -5.673  0.0000E+00  0.8000E+01
     -5.600  0.0000E+00  0.8000E+01
     -5.528  0.0000E+00  0.8000E+01
     -5.456  0.0000E+00  0.8000E+01
     -5.383  0.0000E+00  0.8000E+01
     -5.311  0.0000E+00  0.8000E+01
     -5.239  0.0000E+00  0.8000E+01
     -5.166  0.0000E+00  0.8000E+01
     -5.094  0.0000E+00  0.8000E+01
     -5.021  0.0000E+00  0.8000E+01
     -4.949  0.0000E+00  0.8000E+01
     -4.877  0.0000E+00  0.8000E+01
     -4.804  0.0000E+00  0.8000E+01
     -4.732  0.0000E+00  0.8000E+01
     -4.660  0.0000E+00  0.8000E+01
     -4.587  0.0000E+00  0.8000E+01
     -4.515  0.0000E+00  0.8000E+01
     -4.443  0.0000E+00  0.8000E+01
     -4.370  0.0000E+00  0.8000E+01
     -4.298  0.0000E+00  0.8000E+01
     -4.226  0.0000E+00  0.8000E+01
     -4.153  0.0000E+00  0.8000E+01
     -4.081  0.0000E+00  0.8000E+01
     -4.009  0.0000E+00  0.8000E+01
     -3.936  0.0000E+00  0.8000E+01
     -3.864  0.0000E+00  0.8000E+01
     -3.791  0.0000E+00  0.8000E+01
     -3.719  0.0000E+00  0.8000E+01
     -3.647  0.0000E+00  0.8000E+01
     -3.574  0.0000E+00  0.8000E+01
     -3.502  0.0000E+00  0.8000E+01
     -3.430  0.0000E+00  0.8000E+01
     -3.357  0.0000E+00  0.8000E+01
     -3.285  0.0000E+00  0.8000E+01
     -3.213  0.0000E+00  0.8000E+01
     -3.140  0.0000E+00  0.8000E+01
     -3.068  0.0000E+00  0.8000E+01
     -2.996  0.0000E+00  0.8000E+01
     -2.923  0.0000E+00  0.8000E+01
     -2.851  0.0000E+00  0.8000E+01
     -2.779  0.0000E+00  0.8000E+01
     -2.706  0.0000E+00  0.8000E+01
     -2.634  0.0000E+00  0.8000E+01
     -2.561  0.0000E+00  0.8000E+01
     -2.489  0.0000E+00  0.8000E+01
     -2.417  0.0000E+00  0.8000E+01
     -2.344  0.0000E+00  0.8000E+01
     -2.272  0.0000E+00  0.8000E+01
     -2.200  0.0000E+00  0.8000E+01
     -2.127  0.0000E+00  0.8000E+01
     -2.055  0.0000E+00  0.8000E+01
     -1.983  0.0000E+00  0.8000E+01
     -1.910  0.0000E+00  0.8000E+01
     -1.838  0.0000E+00  0.8000E+01
     -1.766  0.0000E+00  0.8000E+01
     -1.693  0.0000E+00  0.8000E+01
     -1.621  0.0000E+00  0.8000E+01
     -1.549  0.1550E-15  0.8000E+01
     -1.476  0.1994E-13  0.8000E+01
     -1.404  0.1016E-11  0.8000E+01
     -1.331  0.4080E-10  0.8000E+01
     -1.259  0.1276E-08  0.8000E+01
     -1.187  0.3111E-07  0.8000E+01
     -1.114  0.5911E-06  0.8000E+01
     -1.042  0.8761E-05  0.8000E+01
     -0.970  0.1013E-03  0.8000E+01
     -0.897  0.9142E-03  0.8000E+01
     -0.825  0.6439E-02  0.8001E+01
     -0.753  0.3541E-01  0.8003E+01
     -0.680  0.1521E+00  0.8014E+01
     -0.608  0.5100E+00  0.8051E+01
     -0.536  0.1335E+01  0.8147E+01
     -0.463  0.2730E+01  0.8343E+01
     -0.391  0.4358E+01  0.8656E+01
     -0.319  0.5428E+01  0.9047E+01
     -0.246  0.5275E+01  0.9426E+01
     -0.174  0.3998E+01  0.9714E+01
     -0.101  0.2362E+01  0.9884E+01
     -0.029  0.1088E+01  0.9962E+01
      0.043  0.3963E+00  0.9991E+01
      0.116  0.1455E+00  0.1000E+02
      0.188  0.1899E+00  0.1001E+02
      0.260  0.6020E+00  0.1006E+02
      0.333  0.1718E+01  0.1018E+02
      0.405  0.3969E+01  0.1047E+02
      0.477  0.7451E+01  0.1100E+02
      0.550  0.1144E+02  0.1183E+02
      0.622  0.1442E+02  0.1286E+02
      0.694  0.1489E+02  0.1393E+02
      0.767  0.1254E+02  0.1484E+02
      0.839  0.8544E+01  0.1545E+02
      0.911  0.4670E+01  0.1579E+02
      0.984  0.2032E+01  0.1593E+02
      1.056  0.6999E+00  0.1598E+02
      1.129  0.1899E+00  0.1600E+02
      1.201  0.4044E-01  0.1600E+02
      1.273  0.6745E-02  0.1600E+02
      1.346  0.8790E-03  0.1600E+02
      1.418  0.8939E-04  0.1600E+02
      1.490  0.7085E-05  0.1600E+02
      1.563  0.4371E-06  0.1600E+02
      1.635  0.2098E-07  0.1600E+02
      1.707  0.7827E-09  0.1600E+02
      1.780  0.2268E-10  0.1600E+02
      1.852  0.5103E-12  0.1600E+02
      1.924  0.8871E-14  0.1600E+02
      1.997  0.0000E+00  0.1600E+02
      2.069  0.0000E+00  0.1600E+02
      2.141  0.0000E+00  0.1600E+02
      2.214  0.0000E+00  0.1600E+02
      2.286  0.0000E+00  0.1600E+02
      2.359  0.0000E+00  0.1600E+02
      2.431  0.0000E+00  0.1600E+02
      2.503  0.0000E+00  0.1600E+02
      2.576  0.0000E+00  0.1600E+02
      2.648  0.0000E+00  0.1600E+02
      2.720  0.0000E+00  0.1600E+02
      2.71610620    -18.99671800  301     -8.28491670      1.00000000
    -18.997  0.0000E+00  0.0000E+00
    -18.924  0.0000E+00  0.0000E+00
    -18.852  0.0000E+00  0.0000E+00
    -18.780  0.0000E+00  0.0000E+00
    -18.707  0.0000E+00  0.0000E+00
    -18.635  0.0000E+00  0.0000E+00
    -18.562  0.0000E+00  0.0000E+00
    -18.490  0.0000E+00  0.0000E+00
    -18.418  0.0000E+00  0.0000E+00
    -18.345  0.0000E+00  0.0000E+00
    -18.273  0.0000E+00  0.0000E+00
    -18.201  0.0000E+00  0.0000E+00
    -18.128  0.1687E-14  0.1221E-15
    -18.056  0.9392E-13  0.6919E-14
    -17.983  0.4053E-11  0.3003E-12
    -17.911  0.1351E-09  0.1008E-10
    -17.839  0.3475E-08  0.2616E-09
    -17.766  0.6907E-07  0.5261E-08
    -17.694  0.1061E-05  0.8202E-07
    -17.622  0.1259E-04  0.9929E-06
    -17.549  0.1154E-03  0.9347E-05
    -17.477  0.8185E-03  0.6859E-04
    -17.404  0.4488E-02  0.3934E-03
    -17.332  0.1903E-01  0.1771E-02
    -17.260  0.6245E-01  0.6291E-02
    -17.187  0.1585E+00  0.1776E-01
    -17.115  0.3114E+00  0.4030E-01
    -17.043  0.4733E+00  0.7456E-01
    -16.970  0.5568E+00  0.1149E+00
    -16.898  0.5070E+00  0.1515E+00
    -16.825  0.3572E+00  0.1774E+00
    -16.753  0.1948E+00  0.1915E+00
    -16.681  0.8221E-01  0.1975E+00
    -16.608  0.2684E-01  0.1994E+00
    -16.536  0.6781E-02  0.1999E+00
    -16.464  0.1325E-02  0.2000E+00
    -16.391  0.2002E-03  0.2000E+00
    -16.319  0.2338E-04  0.2000E+00
    -16.246  0.2112E-05  0.2000E+00
    -16.174  0.1474E-06  0.2000E+00
    -16.102  0.7946E-08  0.2000E+00
    -16.029  0.3309E-09  0.2000E+00
    -15.957  0.1064E-10  0.2000E+00
    -15.885  0.2643E-12  0.2000E+00
    -15.812  0.5139E-14  0.2000E+00
    -15.740  0.0000E+00  0.2000E+00
    -15.667  0.0000E+00  0.2000E+00
    -15.595  0.0000E+00  0.2000E+00
    -15.523  0.0000E+00  0.2000E+00
    -15.450  0.0000E+00  0.2000E+00
    -15.378  0.0000E+00  0.2000E+00
    -15.306  0.0000E+00  0.2000E+00
    -15.233  0.0000E+00  0.2000E+00
    -15.161  0.0000E+00  0.2000E+00
    -15.088  0.0000E+00  0.2000E+00
    -15.016  0.0000E+00  0.2000E+00
    -14.944  0.0000E+00  0.2000E+00
    -14.871  0.0000E+00  0.2000E+00
    -14.799  0.0000E+00  0.2000E+00
    -14.727  0.0000E+00  0.2000E+00
    -14.654  0.0000E+00  0.2000E+00
    -14.582  0.0000E+00  0.2000E+00
    -14.509  0.0000E+00  0.2000E+00
    -14.437  0.0000E+00  0.2000E+00
    -14.365  0.0000E+00  0.2000E+00
    -14.292  0.0000E+00  0.2000E+00
    -14.220  0.0000E+00  0.2000E+00
    -14.148  0.0000E+00  0.2000E+00
    -14.075  0.0000E+00  0.2000E+00
    -14.003  0.0000E+00  0.2000E+00
    -13.930  0.0000E+00  0.2000E+00
    -13.858  0.0000E+00  0.2000E+00
    -13.786  0.0000E+00  0.2000E+00
    -13.713  0.0000E+00  0.2000E+00
    -13.641  0.0000E+00  0.2000E+00
    -13.569  0.0000E+00  0.2000E+00
    -13.496  0.0000E+00  0.2000E+00
    -13.424  0.0000E+00  0.2000E+00
    -13.351  0.0000E+00  0.2000E+00
    -13.279  0.0000E+00  0.2000E+00
    -13.207  0.0000E+00  0.2000E+00
    -13.134  0.0000E+00  0.2000E+00
    -13.062  0.0000E+00  0.2000E+00
    -12.990  0.0000E+00  0.2000E+00
    -12.917  0.0000E+00  0.2000E+00
    -12.845  0.0000E+00  0.2000E+00
    -12.772  0.0000E+00  0.2000E+00
    -12.700  0.0000E+00  0.2000E+00
    -12.628  0.0000E+00  0.2000E+00
    -12.555  0.0000E+00  0.2000E+00
    -12.483  0.0000E+00  0.2000E+00
    -12.410  0.0000E+00  0.2000E+00
    -12.338  0.0000E+00  0.2000E+00
    -12.266  0.0000E+00  0.2000E+00
    -12.193  0.0000E+00  0.2000E+00
    -12.121  0.0000E+00  0.2000E+00
    -12.049  0.0000E+00  0.2000E+00
    -11.976  0.0000E+00  0.2000E+00
    -11.904  0.0000E+00  0.2000E+00
    -11.831  0.0000E+00  0.2000E+00
    -11.759  0.0000E+00  0.2000E+00
    -11.687  0.0000E+00  0.2000E+00
    -11.614  0.0000E+00  0.2000E+00
    -11.542  0.0000E+00  0.2000E+00
    -11.470  0.0000E+00  0.2000E+00
    -11.397  0.0000E+00  0.2000E+00
    -11.325  0.0000E+00  0.2000E+00
    -11.252  0.0000E+00  0.2000E+00
    -11.180  0.0000E+00  0.2000E+00
    -11.108  0.0000E+00  0.2000E+00
    -11.035  0.0000E+00  0.2000E+00
    -10.963  0.0000E+00  0.2000E+00
    -10.891  0.0000E+00  0.2000E+00
    -10.818  0.0000E+00  0.2000E+00
    -10.746  0.0000E+00  0.2000E+00
    -10.673  0.0000E+00  0.2000E+00
    -10.601  0.3068E-15  0.2000E+00
    -10.529  0.1714E-13  0.2000E+00
    -10.456  0.8379E-12  0.2000E+00
    -10.384  0.3146E-10  0.2000E+00
    -10.312  0.9141E-09  0.2000E+00
    -10.239  0.2056E-07  0.2000E+00
    -10.167  0.3582E-06  0.2000E+00
    -10.094  0.4841E-05  0.2000E+00
    -10.022  0.5080E-04  0.2000E+00
     -9.950  0.4143E-03  0.2000E+00
     -9.877  0.2631E-02  0.2002E+00
     -9.805  0.1303E-01  0.2012E+00
     -9.733  0.5049E-01  0.2048E+00
     -9.660  0.1535E+00  0.2159E+00
     -9.588  0.3679E+00  0.2426E+00
     -9.515  0.7007E+00  0.2933E+00
     -9.443  0.1072E+01  0.3709E+00
     -9.371  0.1339E+01  0.4678E+00
     -9.298  0.1391E+01  0.5685E+00
     -9.226  0.1221E+01  0.6569E+00
     -9.154  0.9128E+00  0.7229E+00
     -9.081  0.5763E+00  0.7646E+00
     -9.009  0.3019E+00  0.7865E+00
     -8.936  0.1285E+00  0.7958E+00
     -8.864  0.4371E-01  0.7989E+00
     -8.792  0.1173E-01  0.7998E+00
     -8.719  0.2464E-02  0.8000E+00
     -8.647  0.4031E-03  0.8000E+00
     -8.575  0.5119E-04  0.8000E+00
     -8.502  0.5038E-05  0.8000E+00
     -8.430  0.3837E-06  0.8000E+00
     -8.357  0.2260E-07  0.8000E+00
     -8.285  0.1029E-08  0.8000E+00
     -8.213  0.3620E-10  0.8000E+00
     -8.140  0.9833E-12  0.8000E+00
     -8.068  0.2056E-13  0.8000E+00
     -7.996  0.3068E-15  0.8000E+00
     -7.923  0.0000E+00  0.8000E+00
     -7.851  0.0000E+00  0.8000E+00
     -7.778  0.0000E+00  0.8000E+00
     -7.706  0.0000E+00  0.8000E+00
     -7.634  0.0000E+00  0.8000E+00
     -7.561  0.0000E+00  0.8000E+00
     -7.489  0.0000E+00  0.8000E+00
     -7.417  0.0000E+00  0.8000E+00
     -7.344  0.0000E+00  0.8000E+00
     -7.272  0.0000E+00  0.8000E+00
     -7.199  0.0000E+00  0.8000E+00
     -7.127  0.0000E+00  0.8000E+00
     -7.055  0.0000E+00  0.8000E+00
     -6.982  0.0000E+00  0.8000E+00
     -6.910  0.0000E+00  0.8000E+00
     -6.838  0.0000E+00  0.8000E+00
     -6.765  0.0000E+00  0.8000E+00
     -6.693  0.0000E+00  0.8000E+00
     -6.620  0.0000E+00  0.8000E+00
     -6.548  0.0000E+00  0.8000E+00
     -6.476  0.0000E+00  0.8000E+00
     -6.403  0.0000E+00  0.8000E+00
     -6.331  0.0000E+00  0.8000E+00
     -6.259  0.0000E+00  0.8000E+00
     -6.186  0.0000E+00  0.8000E+00
     -6.114  0.0000E+00  0.8000E+00
     -6.041  0.0000E+00  0.8000E+00
     -5.969  0.0000E+00  0.8000E+00
     -5.897  0.0000E+00  0.8000E+00
     -5.824  0.0000E+00  0.8000E+00
     -5.752  0.0000E+00  0.8000E+00
     -5.680  0.0000E+00  0.8000E+00
     -5.607  0.0000E+00  0.8000E+00
     -5.535  0.0000E+00  0.8000E+00
     -5.462  0.0000E+00  0.8000E+00
     -5.390  0.0000E+00  0.8000E+00
     -5.318  0.0000E+00  0.8000E+00
     -5.245  0.0000E+00  0.8000E+00
     -5.173  0.0000E+00  0.8000E+00
     -5.101  0.0000E+00  0.8000E+00
     -5.028  0.0000E+00  0.8000E+00
     -4.956  0.0000E+00  0.8000E+00
     -4.883  0.0000E+00  0.8000E+00
     -4.811  0.0000E+00  0.8000E+00
     -4.739  0.0000E+00  0.8000E+00
     -4.666  0.0000E+00  0.8000E+00
     -4.594  0.0000E+00  0.8000E+00
     -4.522  0.0000E+00  0.8000E+00
     -4.449  0.0000E+00  0.8000E+00
     -4.377  0.0000E+00  0.8000E+00
     -4.304  0.0000E+00  0.8000E+00
     -4.232  0.0000E+00  0.8000E+00
     -4.160  0.0000E+00  0.8000E+00
     -4.087  0.0000E+00  0.8000E+00
     -4.015  0.0000E+00  0.8000E+00
     -3.942  0.0000E+00  0.8000E+00
     -3.870  0.0000E+00  0.8000E+00
     -3.798  0.0000E+00  0.8000E+00
     -3.725  0.0000E+00  0.8000E+00
     -3.653  0.0000E+00  0.8000E+00
     -3.581  0.0000E+00  0.8000E+00
     -3.508  0.0000E+00  0.8000E+00
     -3.436  0.0000E+00  0.8000E+00
     -3.363  0.0000E+00  0.8000E+00
     -3.291  0.0000E+00  0.8000E+00
     -3.219  0.0000E+00  0.8000E+00
     -3.146  0.0000E+00  0.8000E+00
     -3.074  0.0000E+00  0.8000E+00
     -3.002  0.0000E+00  0.8000E+00
     -2.929  0.0000E+00  0.8000E+00
     -2.857  0.0000E+00  0.8000E+00
     -2.784  0.0000E+00  0.8000E+00
     -2.712  0.0000E+00  0.8000E+00
     -2.640  0.0000E+00  0.8000E+00
     -2.567  0.0000E+00  0.8000E+00
     -2.495  0.0000E+00  0.8000E+00
     -2.423  0.0000E+00  0.8000E+00
     -2.350  0.0000E+00  0.8000E+00
     -2.278  0.0000E+00  0.8000E+00
     -2.205  0.0000E+00  0.8000E+00
     -2.133  0.0000E+00  0.8000E+00
     -2.061  0.0000E+00  0.8000E+00
     -1.988  0.0000E+00  0.8000E+00
     -1.916  0.0000E+00  0.8000E+00
     -1.844  0.0000E+00  0.8000E+00
     -1.771  0.0000E+00  0.8000E+00
     -1.699  0.0000E+00  0.8000E+00
     -1.626  0.0000E+00  0.8000E+00
     -1.554  0.0000E+00  0.8000E+00
     -1.482  0.3835E-16  0.8000E+00
     -1.409  0.4985E-14  0.8000E+00
     -1.337  0.2578E-12  0.8000E+00
     -1.265  0.1039E-10  0.8000E+00
     -1.192  0.3235E-09  0.8000E+00
     -1.120  0.7777E-08  0.8000E+00
     -1.047  0.1444E-06  0.8000E+00
     -0.975  0.2073E-05  0.8000E+00
     -0.903  0.2299E-04  0.8000E+00
     -0.830  0.1971E-03  0.8000E+00
     -0.758  0.1307E-02  0.8001E+00
     -0.686  0.6700E-02  0.8006E+00
     -0.613  0.2657E-01  0.8025E+00
     -0.541  0.8154E-01  0.8084E+00
     -0.468  0.1936E+00  0.8224E+00
     -0.396  0.3558E+00  0.8482E+00
     -0.324  0.5059E+00  0.8848E+00
     -0.251  0.5569E+00  0.9251E+00
     -0.179  0.4744E+00  0.9594E+00
     -0.107  0.3129E+00  0.9821E+00
     -0.034  0.1597E+00  0.9936E+00
      0.038  0.6347E-01  0.9982E+00
      0.111  0.2186E-01  0.9998E+00
      0.183  0.1703E-01  0.1001E+01
      0.255  0.4809E-01  0.1005E+01
      0.328  0.1422E+00  0.1015E+01
      0.400  0.3420E+00  0.1040E+01
      0.472  0.6667E+00  0.1088E+01
      0.545  0.1062E+01  0.1165E+01
      0.617  0.1391E+01  0.1265E+01
      0.690  0.1496E+01  0.1374E+01
      0.762  0.1313E+01  0.1469E+01
      0.834  0.9318E+00  0.1536E+01
      0.907  0.5294E+00  0.1574E+01
      0.979  0.2388E+00  0.1592E+01
      1.051  0.8489E-01  0.1598E+01
      1.124  0.2368E-01  0.1600E+01
      1.196  0.5164E-02  0.1600E+01
      1.269  0.8786E-03  0.1600E+01
      1.341  0.1164E-03  0.1600E+01
      1.413  0.1199E-04  0.1600E+01
      1.486  0.9591E-06  0.1600E+01
      1.558  0.5956E-07  0.1600E+01
      1.630  0.2868E-08  0.1600E+01
      1.703  0.1071E-09  0.1600E+01
      1.775  0.3095E-11  0.1600E+01
      1.848  0.6934E-13  0.1600E+01
      1.920  0.1150E-14  0.1600E+01
      1.992  0.0000E+00  0.1600E+01
      2.065  0.0000E+00  0.1600E+01
      2.137  0.0000E+00  0.1600E+01
      2.209  0.0000E+00  0.1600E+01
      2.282  0.0000E+00  0.1600E+01
      2.354  0.0000E+00  0.1600E+01
      2.427  0.0000E+00  0.1600E+01
      2.499  0.0000E+00  0.1600E+01
      2.571  0.0000E+00  0.1600E+01
      2.644  0.0000E+00  0.1600E+01
      2.716  0.0000E+00  0.1600E+01
