    5    5   10    1
  0.2065463E+03  0.1027150E-08  0.9770456E-09  0.1029291E-08  0.5000000E-15
  1.000000000000000E-004
  CAR 
 unknown system                          
      8      4      8
 
  0.2500000E+00  0.2500000E+00  0.2500000E+00  0.2500000E+00
    1      -16.996668   1.000000
    2       -9.438053   1.000000
    3       -9.370827   1.000000
    4       -9.227311   1.000000
    5       -0.297233   0.000000
    6        0.546868   0.000000
    7        0.664329   0.000000
    8        0.712181   0.000000
 
 -0.2500000E+00  0.2500000E+00  0.2500000E+00  0.2500000E+00
    1      -16.996614   1.000000
    2       -9.438081   1.000000
    3       -9.370817   1.000000
    4       -9.227179   1.000000
    5       -0.300188   0.000000
    6        0.555351   0.000000
    7        0.666113   0.000000
    8        0.716106   0.000000
 
  0.2500000E+00 -0.2500000E+00  0.2500000E+00  0.2500000E+00
    1      -16.996689   1.000000
    2       -9.438155   1.000000
    3       -9.370852   1.000000
    4       -9.227272   1.000000
    5       -0.294629   0.000000
    6        0.539964   0.000000
    7        0.657670   0.000000
    8        0.704346   0.000000
 
 -0.2500000E+00 -0.2500000E+00  0.2500000E+00  0.2500000E+00
    1      -16.996718   1.000000
    2       -9.438193   1.000000
    3       -9.370946   1.000000
    4       -9.227387   1.000000
    5       -0.294264   0.000000
    6        0.541295   0.000000
    7        0.664089   0.000000
    8        0.698540   0.000000
