 running on   16 total cores
 distrk:  each k-point on   16 cores,    1 groups
 distr:  one band on    4 cores,    4 groups
 using from now: INCAR     
 vasp.5.4.4.18Apr17-6-g9f103f2a35 (build Nov 25 2021 15:25:00) complex          
  
 POSCAR found type information on POSCAR  H  C 
 POSCAR found :  2 types and       5 ions
 scaLAPACK will be used
 LDA part: xc-table for Pade appr. of Perdew
 POSCAR found type information on POSCAR  H  C 
 POSCAR found :  2 types and       5 ions
 generate k-points for:    2    2    2
 POSCAR, INCAR and KPOINTS ok, starting setup
 FFT: planning ...
 WAVECAR not read
 prediction of wavefunctions initialized - no I/O
 entering main loop
       N       E                     dE             d eps       ncg     rms          rms(c)
DAV:   1     0.173002286858E+02    0.17300E+02   -0.19762E+03    96   0.421E+02
DAV:   2    -0.219438016735E+02   -0.39244E+02   -0.39244E+02    72   0.111E+02
DAV:   3    -0.270772226989E+02   -0.51334E+01   -0.51334E+01    64   0.453E+01
DAV:   4    -0.273105297429E+02   -0.23331E+00   -0.23331E+00   128   0.111E+01
DAV:   5    -0.273106251789E+02   -0.95436E-04   -0.95436E-04    96   0.248E-01    0.844E+00
RMM:   6    -0.245896352086E+02    0.27210E+01   -0.49667E+00    64   0.136E+01    0.418E+00
RMM:   7    -0.241300335256E+02    0.45960E+00   -0.10580E+00    64   0.593E+00    0.224E+00
RMM:   8    -0.239866393309E+02    0.14339E+00   -0.16338E-01    64   0.286E+00    0.230E-01
RMM:   9    -0.239811190955E+02    0.55202E-02   -0.10740E-02    64   0.686E-01    0.192E-01
RMM:  10    -0.239747701172E+02    0.63490E-02   -0.24065E-02    64   0.840E-01    0.267E-01
RMM:  11    -0.239758057040E+02   -0.10356E-02   -0.96004E-03    64   0.603E-01    0.106E-01
RMM:  12    -0.239845685569E+02   -0.87629E-02   -0.23190E-03    64   0.293E-01    0.109E-01
RMM:  13    -0.239853688325E+02   -0.80028E-03   -0.12336E-03    64   0.192E-01    0.296E-02
RMM:  14    -0.239881799436E+02   -0.28111E-02   -0.77638E-04    64   0.167E-01    0.135E-02
RMM:  15    -0.239884719084E+02   -0.29196E-03   -0.90786E-05    64   0.495E-02    0.197E-02
RMM:  16    -0.239886994294E+02   -0.22752E-03   -0.93077E-05    64   0.541E-02    0.179E-03
RMM:  17    -0.239887494856E+02   -0.50056E-04   -0.57061E-06    60   0.154E-02    0.393E-03
RMM:  18    -0.239887626388E+02   -0.13153E-04   -0.38768E-06    60   0.113E-02    0.119E-03
RMM:  19    -0.239887677606E+02   -0.51218E-05   -0.78262E-07    48   0.624E-03    0.210E-03
RMM:  20    -0.239887679252E+02   -0.16459E-06   -0.52892E-07    48   0.459E-03
    1 T=     1. E= -.23988162E+02 F= -.23988768E+02 E0= -.23988768E+02  EK= 0.60552E-03 SP= 0.00E+00 SK= 0.00E+00
 bond charge predicted
       N       E                     dE             d eps       ncg     rms          rms(c)
DAV:   1    -0.239934839365E+02   -0.47162E-02   -0.51288E-03    96   0.675E-01    0.349E-02
RMM:   2    -0.239934604176E+02    0.23519E-04   -0.15313E-04    64   0.941E-02    0.173E-02
RMM:   3    -0.239934600055E+02    0.41200E-06   -0.40845E-05    64   0.426E-02    0.720E-03
RMM:   4    -0.239934601282E+02   -0.12266E-06   -0.15211E-06    48   0.106E-02
    2 T=    10. E= -.23988244E+02 F= -.23993460E+02 E0= -.23993460E+02  EK= 0.52166E-02 SP= 0.00E+00 SK= 0.00E+00
 bond charge predicted
 prediction of wavefunctions
       N       E                     dE             d eps       ncg     rms          rms(c)
DAV:   1    -0.240015769811E+02   -0.81170E-02   -0.40228E-03    64   0.633E-01    0.103E-02
RMM:   2    -0.240015959625E+02   -0.18981E-04   -0.19465E-04    64   0.118E-01    0.439E-03
RMM:   3    -0.240015975168E+02   -0.15543E-05   -0.76910E-06    60   0.234E-02    0.396E-03
RMM:   4    -0.240015981284E+02   -0.61163E-06   -0.15365E-06    48   0.102E-02
    3 T=    26. E= -.23988381E+02 F= -.24001598E+02 E0= -.24001598E+02  EK= 0.13217E-01 SP= 0.00E+00 SK= 0.00E+00
 bond charge predicted
 prediction of wavefunctions
       N       E                     dE             d eps       ncg     rms          rms(c)
DAV:   1    -0.240110044197E+02   -0.94069E-02   -0.11608E-03    64   0.293E-01    0.123E-02
RMM:   2    -0.240110044179E+02    0.18680E-08   -0.55178E-05    64   0.623E-02    0.811E-03
RMM:   3    -0.240110048524E+02   -0.43457E-06   -0.15072E-05    64   0.241E-02    0.256E-03
RMM:   4    -0.240110055851E+02   -0.73264E-06   -0.51141E-07    48   0.612E-03
    4 T=    43. E= -.23988548E+02 F= -.24011006E+02 E0= -.24011006E+02  EK= 0.22458E-01 SP= 0.00E+00 SK= 0.00E+00
 bond charge predicted
 prediction of wavefunctions
       N       E                     dE             d eps       ncg     rms          rms(c)
DAV:   1    -0.240190686985E+02   -0.80638E-02   -0.16375E-03    64   0.335E-01    0.547E-03
RMM:   2    -0.240190746217E+02   -0.59231E-05   -0.18337E-05    64   0.356E-02    0.277E-03
RMM:   3    -0.240190788401E+02   -0.42184E-05   -0.89404E-07    48   0.853E-03    0.152E-03
RMM:   4    -0.240190849156E+02   -0.60755E-05   -0.51480E-07    48   0.444E-03    0.357E-04
RMM:   5    -0.240190879517E+02   -0.30361E-05   -0.16459E-07    48   0.249E-03    0.359E-04
RMM:   6    -0.240190951176E+02   -0.71659E-05   -0.75475E-07    44   0.415E-03    0.266E-04
RMM:   7    -0.240190955513E+02   -0.43373E-06   -0.79724E-08    40   0.210E-03
    5 T=    59. E= -.23988697E+02 F= -.24019096E+02 E0= -.24019096E+02  EK= 0.30398E-01 SP= 0.00E+00 SK= 0.00E+00
 bond charge predicted
 prediction of wavefunctions
       N       E                     dE             d eps       ncg     rms          rms(c)
DAV:   1    -0.240235913408E+02   -0.44962E-02   -0.20179E-03    80   0.368E-01    0.607E-03
RMM:   2    -0.240235946386E+02   -0.32979E-05   -0.14544E-05    64   0.328E-02    0.228E-03
RMM:   3    -0.240235977546E+02   -0.31160E-05   -0.15131E-06    48   0.100E-02    0.874E-04
RMM:   4    -0.240236002573E+02   -0.25027E-05   -0.35522E-07    48   0.511E-03    0.457E-04
RMM:   5    -0.240236032964E+02   -0.30391E-05   -0.21020E-07    48   0.290E-03    0.276E-04
RMM:   6    -0.240236042293E+02   -0.93297E-06   -0.74191E-08    43   0.178E-03
    6 T=    67. E= -.23988783E+02 F= -.24023604E+02 E0= -.24023604E+02  EK= 0.34821E-01 SP= 0.00E+00 SK= 0.00E+00
 bond charge predicted
 prediction of wavefunctions
       N       E                     dE             d eps       ncg     rms          rms(c)
DAV:   1    -0.240232853182E+02    0.31798E-03   -0.19767E-03    64   0.380E-01    0.344E-03
RMM:   2    -0.240232894589E+02   -0.41408E-05   -0.15773E-05    64   0.448E-02    0.213E-03
RMM:   3    -0.240232917589E+02   -0.23000E-05   -0.52934E-07    48   0.684E-03    0.123E-03
RMM:   4    -0.240232950110E+02   -0.32521E-05   -0.42682E-07    48   0.509E-03    0.495E-04
RMM:   5    -0.240232970617E+02   -0.20507E-05   -0.62503E-08    48   0.239E-03    0.287E-04
RMM:   6    -0.240233002096E+02   -0.31479E-05   -0.55364E-08    44   0.181E-03    0.306E-04
RMM:   7    -0.240233004232E+02   -0.21356E-06   -0.32260E-08    36   0.158E-03
    7 T=    67. E= -.23988774E+02 F= -.24023300E+02 E0= -.24023300E+02  EK= 0.34527E-01 SP= 0.00E+00 SK= 0.00E+00
 bond charge predicted
 prediction of wavefunctions
       N       E                     dE             d eps       ncg     rms          rms(c)
DAV:   1    -0.240184685380E+02    0.48317E-02   -0.16848E-03    80   0.363E-01    0.258E-03
RMM:   2    -0.240184707247E+02   -0.21867E-05   -0.18760E-05    64   0.513E-02    0.159E-03
RMM:   3    -0.240184709912E+02   -0.26647E-06   -0.30868E-07    48   0.545E-03    0.135E-03
RMM:   4    -0.240184715386E+02   -0.54738E-06   -0.44960E-08    40   0.263E-03
    8 T=    58. E= -.23988665E+02 F= -.24018472E+02 E0= -.24018472E+02  EK= 0.29807E-01 SP= 0.00E+00 SK= 0.00E+00
 bond charge predicted
 prediction of wavefunctions
       N       E                     dE             d eps       ncg     rms          rms(c)
DAV:   1    -0.240109586154E+02    0.75124E-02   -0.12028E-03    64   0.323E-01    0.385E-03
RMM:   2    -0.240109607734E+02   -0.21580E-05   -0.20709E-05    64   0.568E-02    0.271E-03
RMM:   3    -0.240109609498E+02   -0.17646E-06   -0.40374E-07    48   0.525E-03    0.209E-03
RMM:   4    -0.240109615415E+02   -0.59161E-06   -0.58588E-07    48   0.542E-03
    9 T=    43. E= -.23988487E+02 F= -.24010962E+02 E0= -.24010962E+02  EK= 0.22475E-01 SP= 0.00E+00 SK= 0.00E+00
 bond charge predicted
 prediction of wavefunctions
       N       E                     dE             d eps       ncg     rms          rms(c)
DAV:   1    -0.240036306047E+02    0.73303E-02   -0.64297E-04    64   0.259E-01    0.204E-03
RMM:   2    -0.240036325256E+02   -0.19209E-05   -0.15086E-05    64   0.484E-02    0.354E-03
RMM:   3    -0.240036323564E+02    0.16928E-06   -0.25211E-07    48   0.395E-03    0.336E-03
RMM:   4    -0.240036333296E+02   -0.97326E-06   -0.37471E-07    48   0.436E-03
   10 T=    30. E= -.23988306E+02 F= -.24003633E+02 E0= -.24003633E+02  EK= 0.15328E-01 SP= 0.00E+00 SK= 0.00E+00
 bond charge predicted
 prediction of wavefunctions
 wavefunctions rotated
