 vasp.5.4.4.18Apr17-6-g9f103f2a35 (build Nov 25 2021 15:25:00) complex          
  
 executed on             LinuxIFC date 2022.02.21  10:17:44
 running on   16 total cores
 distrk:  each k-point on   16 cores,    1 groups
 distr:  one band on NCORES_PER_BAND=   4 cores,    4 groups


--------------------------------------------------------------------------------------------------------


 INCAR:
 POTCAR:    PAW_PBE H 15Jun2001                   
 POTCAR:    PAW_PBE C 08Apr2002                   
 POTCAR:    PAW_PBE H 15Jun2001                   
   VRHFIN =H: ultrasoft test                                                    
   LEXCH  = PE                                                                  
   EATOM  =    12.4884 eV,    0.9179 Ry                                         
                                                                                
   TITEL  = PAW_PBE H 15Jun2001                                                 
   LULTRA =        F    use ultrasoft PP ?                                      
   IUNSCR =        0    unscreen: 0-lin 1-nonlin 2-no                           
   RPACOR =    0.000    partial core radius                                     
   POMASS =    1.000; ZVAL   =    1.000    mass and valenz                      
   RCORE  =    1.100    outmost cutoff radius                                   
   RWIGS  =    0.700; RWIGS  =    0.370    wigner-seitz radius (au A)           
   ENMAX  =  250.000; ENMIN  =  200.000 eV                                      
   RCLOC  =    0.701    cutoff for local pot                                    
   LCOR   =        T    correct aug charges                                     
   LPAW   =        T    paw PP                                                  
   EAUG   =  400.000                                                            
   RMAX   =    1.123    core radius for proj-oper                               
   RAUG   =    1.200    factor for augmentation sphere                          
   RDEP   =    1.112    radius for radial grids                                 
   RDEPT  =    0.926    core radius for aug-charge                              
                                                                                
   Atomic configuration                                                         
    2 entries                                                                   
     n  l   j            E        occ.                                          
     1  0  0.50        -6.4927   1.0000                                         
     2  1  0.50        -3.4015   0.0000                                         
   Description                                                                  
     l       E           TYP  RCUT    TYP  RCUT                                 
     0     -6.4927494     23  1.100                                             
     0      6.8029130     23  1.100                                             
     1     -4.0817478     23  1.100                                             
  local pseudopotential read in
  atomic valenz-charges read in
  non local Contribution for L=           0  read in
    real space projection operators read in
  non local Contribution for L=           0  read in
    real space projection operators read in
  non local Contribution for L=           1  read in
    real space projection operators read in
    PAW grid and wavefunctions read in
 
   number of l-projection  operators is LMAX  =           3
   number of lm-projection operators is LMMAX =           5
 
 POTCAR:    PAW_PBE C 08Apr2002                   
   VRHFIN =C: s2p2                                                              
   LEXCH  = PE                                                                  
   EATOM  =   147.1560 eV,   10.8157 Ry                                         
                                                                                
   TITEL  = PAW_PBE C 08Apr2002                                                 
   LULTRA =        F    use ultrasoft PP ?                                      
   IUNSCR =        1    unscreen: 0-lin 1-nonlin 2-no                           
   RPACOR =    1.200    partial core radius                                     
   POMASS =   12.011; ZVAL   =    4.000    mass and valenz                      
   RCORE  =    1.500    outmost cutoff radius                                   
   RWIGS  =    1.630; RWIGS  =    0.863    wigner-seitz radius (au A)           
   ENMAX  =  400.000; ENMIN  =  300.000 eV                                      
   ICORE  =        2    local potential                                         
   LCOR   =        T    correct aug charges                                     
   LPAW   =        T    paw PP                                                  
   EAUG   =  644.873                                                            
   DEXC   =    0.000                                                            
   RMAX   =    1.529    core radius for proj-oper                               
   RAUG   =    1.300    factor for augmentation sphere                          
   RDEP   =    1.501    radius for radial grids                                 
   RDEPT  =    1.300    core radius for aug-charge                              
                                                                                
   Atomic configuration                                                         
    4 entries                                                                   
     n  l   j            E        occ.                                          
     1  0  0.50      -273.3789   2.0000                                         
     2  0  0.50       -13.7508   2.0000                                         
     2  1  0.50        -5.2854   2.0000                                         
     3  2  1.50        -5.4423   0.0000                                         
   Description                                                                  
     l       E           TYP  RCUT    TYP  RCUT                                 
     0    -13.7508458     23  1.200                                             
     0     -8.2022199     23  1.200                                             
     1     -5.2854383     23  1.500                                             
     1     34.0145650     23  1.500                                             
     2     -5.4423304      7  1.500                                             
  local pseudopotential read in
  partial core-charges read in
  partial kinetic energy density read in
  atomic valenz-charges read in
  non local Contribution for L=           0  read in
    real space projection operators read in
  non local Contribution for L=           0  read in
    real space projection operators read in
  non local Contribution for L=           1  read in
    real space projection operators read in
  non local Contribution for L=           1  read in
    real space projection operators read in
    PAW grid and wavefunctions read in
 
   number of l-projection  operators is LMAX  =           4
   number of lm-projection operators is LMMAX =           8
 
  PAW_PBE H 15Jun2001                   :
 energy of atom  1       EATOM=  -12.4884
 kinetic energy error for atom=    0.0098 (will be added to EATOM!!)
  PAW_PBE C 08Apr2002                   :
 energy of atom  2       EATOM= -147.1560
 kinetic energy error for atom=    0.0288 (will be added to EATOM!!)
 
 
 POSCAR:  H  C                                   
  positions in cartesian coordinates
  No initial velocities read in
 exchange correlation table for  LEXCH =        8
   RHO(1)=    0.500       N(1)  =     2000
   RHO(2)=  100.500       N(2)  =     4000

 VTST: version 3.2, (02/03/18)

 CHAIN: initializing optimizer
 
 OPT: Using VASP Dynamics algorithm
 CHAIN: Read ICHAIN            0
 
 POSCAR:  H  C                                   
  positions in cartesian coordinates
  No initial velocities read in
 


--------------------------------------------------------------------------------------------------------


 ion  position               nearest neighbor table
   1  0.538  0.407  0.361-   5 1.13
   2  0.394  0.480  0.439-   5 1.13
   3  0.553  0.565  0.442-   5 1.09
   4  0.528  0.417  0.540-   5 1.11
   5  0.503  0.467  0.445-   3 1.09   4 1.11   1 1.13   2 1.13
 

IMPORTANT INFORMATION: All symmetrisations will be switched off!
NOSYMM: (Re-)initialisation of all symmetry stuff for point group C_1.

 
 

Automatic generation of k-mesh.
 generate k-points for:    2    2    2
Space group operators:
 irot       det(A)        alpha          n_x          n_y          n_z        tau_x        tau_y        tau_z
    1     1.000000     0.000000     1.000000     0.000000     0.000000     0.000000     0.000000     0.000000
 
 Subroutine IBZKPT returns following result:
 ===========================================
 
 Found      4 irreducible k-points:
 
 Following reciprocal coordinates:
            Coordinates               Weight
  0.250000  0.250000  0.250000      2.000000
 -0.250000  0.250000  0.250000      2.000000
  0.250000 -0.250000  0.250000      2.000000
 -0.250000 -0.250000  0.250000      2.000000
 
 Following cartesian coordinates:
            Coordinates               Weight
  0.024339  0.025719  0.023956      2.000000
 -0.024339  0.025456  0.023632      2.000000
  0.024339 -0.025456  0.024956      2.000000
 -0.024339 -0.025719  0.024632      2.000000
 


--------------------------------------------------------------------------------------------------------




 Dimension of arrays:
   k-points           NKPTS =      4   k-points in BZ     NKDIM =      4   number of bands    NBANDS=      8
   number of dos      NEDOS =    301   number of ions     NIONS =      5
   non local maximal  LDIM  =      4   non local SUM 2l+1 LMDIM =      8
   total plane-waves  NPLWV = 313600
   max r-space proj   IRMAX =      1   max aug-charges    IRDMAX=   3783
   dimension x,y,z NGX =    70 NGY =   64 NGZ =   70
   dimension x,y,z NGXF=   140 NGYF=  128 NGZF=  140
   support grid    NGXF=   140 NGYF=  128 NGZF=  140
   ions per type =               4   1
   NGX,Y,Z   is equivalent  to a cutoff of  11.33, 10.89, 11.31 a.u.
   NGXF,Y,Z  is equivalent  to a cutoff of  22.66, 21.78, 22.61 a.u.

 SYSTEM =  unknown system                          
 POSCAR =   H  C                                   

 Startparameter for this run:
   NWRITE =      2    write-flag & timer
   PREC   = a         normal or accurate (medium, high low for compatibility)
   ISTART =      0    job   : 0-new  1-cont  2-samecut
   ICHARG =      2    charge: 1-file 2-atom 10-const
   ISPIN  =      1    spin polarized calculation?
   LNONCOLLINEAR =      F non collinear calculations
   LSORBIT =      F    spin-orbit coupling
   INIWAV =      1    electr: 0-lowe 1-rand  2-diag
   LASPH  =      F    aspherical Exc in radial PAW
   METAGGA=      F    non-selfconsistent MetaGGA calc.

 Electronic Relaxation 1
   ENCUT  =  400.0 eV  29.40 Ry    5.42 a.u.  16.75 15.93 16.79*2*pi/ulx,y,z
   ENINI  =  400.0     initial cutoff
   ENAUG  =  644.9 eV  augmentation charge cutoff
   NELM   =    120;   NELMIN=  4; NELMDL= -5     # of ELM steps 
   EDIFF  = 0.1E-05   stopping-criterion for ELM
   LREAL  =      F    real-space projection
   NLSPLINE    = F    spline interpolate recip. space projectors
   LCOMPAT=      F    compatible to vasp.4.4
   GGA_COMPAT  = T    GGA compatible to vasp.4.4-vasp.4.6
   LMAXPAW     = -100 max onsite density
   LMAXMIX     =    2 max onsite mixed and CHGCAR
   VOSKOWN=      0    Vosko Wilk Nusair interpolation
   ROPT   =    0.00000   0.00000
 Ionic relaxation
   EDIFFG = 0.1E-04   stopping-criterion for IOM
   NSW    =     10    number of steps for IOM
   NBLOCK =      1;   KBLOCK =     10    inner block; outer block 
   IBRION =      0    ionic relax: 0-MD 1-quasi-New 2-CG
   NFREE  =      0    steps in history (QN), initial steepest desc. (CG)
   ISIF   =      2    stress and relaxation
   IWAVPR =     12    prediction:  0-non 1-charg 2-wave 3-comb
   ISYM   =      0    0-nonsym 1-usesym 2-fastsym
   LCORR  =      T    Harris-Foulkes like correction to forces

   POTIM  = 0.5000    time-step for ionic-motion
   TEIN   =    0.0    initial temperature
   TEBEG  =    0.0;   TEEND  =   0.0 temperature during run
   SMASS  =  -3.00    Nose mass-parameter (am)
   estimated Nose-frequenzy (Omega)   =  0.10E-29 period in steps =****** mass=  -0.241E-26a.u.
   SCALEE = 1.0000    scale energy and forces
   NPACO  =    256;   APACO  = 16.0  distance and # of slots for P.C.
   PSTRESS=    0.0 pullay stress

  Mass of Ions in am
   POMASS =   1.00 12.01
  Ionic Valenz
   ZVAL   =   1.00  4.00
  Atomic Wigner-Seitz radii
   RWIGS  =  -1.00 -1.00
  virtual crystal weights 
   VCA    =   1.00  1.00
   NELECT =       8.0000    total number of electrons
   NUPDOWN=      -1.0000    fix difference up-down

 DOS related values:
   EMIN   =  10.00;   EMAX   =-10.00  energy-range for DOS
   EFERMI =   0.00
   ISMEAR =     0;   SIGMA  =   0.20  broadening in eV -4-tet -1-fermi 0-gaus

 Electronic relaxation 2 (details)
   IALGO  =     68    algorithm
   LDIAG  =      T    sub-space diagonalisation (order eigenvalues)
   LSUBROT=      F    optimize rotation matrix (better conditioning)
   TURBO    =      0    0=normal 1=particle mesh
   IRESTART =      0    0=no restart 2=restart with 2 vectors
   NREBOOT  =      0    no. of reboots
   NMIN     =      0    reboot dimension
   EREF     =   0.00    reference energy to select bands
   IMIX   =      4    mixing-type and parameters
     AMIX     =   0.40;   BMIX     =  1.00
     AMIX_MAG =   1.60;   BMIX_MAG =  1.00
     AMIN     =   0.10
     WC   =   100.;   INIMIX=   1;  MIXPRE=   1;  MAXMIX= -45

 Intra band minimization:
   WEIMIN = 0.0010     energy-eigenvalue tresh-hold
   EBREAK =  0.31E-07  absolut break condition
   DEPER  =   0.30     relativ break condition  

   TIME   =   0.40     timestep for ELM

  volume/ion in A,a.u.               =     206.55      1393.84
  Fermi-wavevector in a.u.,A,eV,Ry     =   0.323923  0.612126  1.427610  0.104926
  Thomas-Fermi vector in A             =   1.213599
 
 Write flags
   LWAVE        =      F    write WAVECAR
   LDOWNSAMPLE  =      F    k-point downsampling of WAVECAR
   LCHARG       =      F    write CHGCAR
   LVTOT        =      F    write LOCPOT, total local potential
   LVHAR        =      F    write LOCPOT, Hartree potential only
   LELF         =      F    write electronic localiz. function (ELF)
   LORBIT       =      0    0 simple, 1 ext, 2 COOP (PROOUT), +10 PAW based schemes


 Dipole corrections
   LMONO  =      F    monopole corrections only (constant potential shift)
   LDIPOL =      F    correct potential (dipole corrections)
   IDIPOL =      0    1-x, 2-y, 3-z, 4-all directions 
   EPSILON=  1.0000000 bulk dielectric constant

 Exchange correlation treatment:
   GGA     =    --    GGA type
   LEXCH   =     8    internal setting for exchange type
   VOSKOWN=      0    Vosko Wilk Nusair interpolation
   LHFCALC =     F    Hartree Fock is set to
   LHFONE  =     F    Hartree Fock one center treatment
   AEXX    =    0.0000 exact exchange contribution

 Linear response parameters
   LEPSILON=     F    determine dielectric tensor
   LRPA    =     F    only Hartree local field effects (RPA)
   LNABLA  =     F    use nabla operator in PAW spheres
   LVEL    =     F    velocity operator in full k-point grid
   LINTERFAST=   F  fast interpolation
   KINTER  =     0    interpolate to denser k-point grid
   CSHIFT  =0.1000    complex shift for real part using Kramers Kronig
   OMEGAMAX=  -1.0    maximum frequency
   DEG_THRESHOLD= 0.2000000E-02 threshold for treating states as degnerate
   RTIME   =   -0.100 relaxation time in fs
  (WPLASMAI=    0.000 imaginary part of plasma frequency in eV, 0.658/RTIME)
   DFIELD  = 0.0000000 0.0000000 0.0000000 field for delta impulse in time
 
 Orbital magnetization related:
   ORBITALMAG=     F  switch on orbital magnetization
   LCHIMAG   =     F  perturbation theory with respect to B field
   DQ        =  0.001000  dq finite difference perturbation B field
   LLRAUG    =     F  two centre corrections for induced B field



--------------------------------------------------------------------------------------------------------


 molecular dynamics for ions
   using a microcanonical ensemble
 charge density and potential will be updated during run
 non-spin polarized calculation
 RMM-DIIS sequential band-by-band and
  variant of blocked Davidson during initial phase
 perform sub-space diagonalisation
    before iterative eigenvector-optimisation
 modified Broyden-mixing scheme, WC =      100.0
 initial mixing is a Kerker type mixing with AMIX =  0.4000 and BMIX =      1.0000
 Hartree-type preconditioning will be used
 using additional bands            4
 reciprocal scheme for non local part
 use partial core corrections
 calculate Harris-corrections to forces 
   (improved forces if not selfconsistent)
 use gradient corrections 
 use of overlap-Matrix (Vanderbilt PP)
 Gauss-broadening in eV      SIGMA  =   0.20


--------------------------------------------------------------------------------------------------------


  energy-cutoff  :      400.00
  volume of cell :     1032.73
      direct lattice vectors                 reciprocal lattice vectors
    10.271496086  0.000000000  0.000000000     0.097356801  0.000525322  0.000647849
    -0.052719056  9.770313977  0.000000000     0.000000000  0.102350856 -0.001999300
    -0.069562952  0.201016485 10.290708701     0.000000000  0.000000000  0.097175037

  length of vectors
    10.271496086  9.770456208 10.292906888     0.097360374  0.102370381  0.097175037


 
 k-points in units of 2pi/SCALE and weight: read from INCAR                         
   0.02433920  0.02571904  0.02395590       0.250
  -0.02433920  0.02545638  0.02363197       0.250
   0.02433920 -0.02545638  0.02495555       0.250
  -0.02433920 -0.02571904  0.02463162       0.250
 
 k-points in reciprocal lattice and weights: read from INCAR                         
   0.25000000  0.25000000  0.25000000       0.250
  -0.25000000  0.25000000  0.25000000       0.250
   0.25000000 -0.25000000  0.25000000       0.250
  -0.25000000 -0.25000000  0.25000000       0.250
 
 position of ions in fractional coordinates (direct lattice) 
   0.53817317  0.40685280  0.36060091
   0.39384193  0.48000878  0.43877098
   0.55267831  0.56544414  0.44243730
   0.52812777  0.41661366  0.53957859
   0.50264945  0.46686972  0.44542303
 
 position of ions in cartesian coordinates  (Angst):
   5.48131028  4.04756635  3.71083896
   3.98951805  4.77803671  4.51526435
   5.61624618  5.61350402  4.55299337
   5.36516417  4.17891047  5.55264611
   5.10736404  4.65100112  4.58371868
 


--------------------------------------------------------------------------------------------------------


 k-point  1 :   0.2500 0.2500 0.2500  plane waves:   18750
 k-point  2 :  -0.2500 0.2500 0.2500  plane waves:   18731
 k-point  3 :   0.2500-0.2500 0.2500  plane waves:   18757
 k-point  4 :  -0.2500-0.2500 0.2500  plane waves:   18791

 maximum and minimum number of plane-waves per node :      4716     4664

 maximum number of plane-waves:     18791
 maximum index in each direction: 
   IXMAX=   16   IYMAX=   16   IZMAX=   16
   IXMIN=  -16   IYMIN=  -16   IZMIN=  -17


 parallel 3D FFT for wavefunctions:
    minimum data exchange during FFTs selected (reduces bandwidth)
 parallel 3D FFT for charge:
    minimum data exchange during FFTs selected (reduces bandwidth)


 total amount of memory used by VASP MPI-rank0    53617. kBytes
=======================================================================

   base      :      30000. kBytes
   nonl-proj :       2791. kBytes
   fftplans  :       7848. kBytes
   grid      :      12367. kBytes
   one-center:          6. kBytes
   wavefun   :        605. kBytes
 
     INWAV:  cpu time    0.0000: real time    0.0000
 Broyden mixing: mesh for mixing (old mesh)
   NGX = 33   NGY = 31   NGZ = 33
  (NGX  =140   NGY  =128   NGZ  =140)
  gives a total of  33759 points

 initial charge density was supplied:
 charge density of overlapping atoms calculated
 number of electron       8.0000000 magnetization 
 keeping initial charge density in first step


--------------------------------------------------------------------------------------------------------


 Maximum index for augmentation-charges          151 (set IRDMAX)


--------------------------------------------------------------------------------------------------------


 First call to EWALD:  gamma=   0.175
 Maximum number of real-space cells 3x 3x 3
 Maximum number of reciprocal cells 3x 3x 3

    FEWALD:  cpu time    0.0028: real time    0.0028


--------------------------------------- Iteration      1(   1)  ---------------------------------------


    POTLOK:  cpu time    0.1497: real time    0.1603
    SETDIJ:  cpu time    0.0043: real time    0.0051
     EDDAV:  cpu time    0.1873: real time    0.2087
       DOS:  cpu time    0.0006: real time    0.0014
    --------------------------------------------
      LOOP:  cpu time    0.3419: real time    0.3755

 eigenvalue-minimisations  :    96
 total energy-change (2. order) : 0.1730023E+02  (-0.1976231E+03)
 number of electron       8.0000000 magnetization 
 augmentation part        8.0000000 magnetization 

 Free energy of the ion-electron system (eV)
  ---------------------------------------------------
  alpha Z        PSCENC =         0.23457282
  Ewald energy   TEWEN  =       126.65328705
  -Hartree energ DENC   =      -243.54808677
  -exchange      EXHF   =         0.00000000
  -V(xc)+E(xc)   XCENC  =        21.92464358
  PAW double counting   =       117.05815612     -117.66307307
  entropy T*S    EENTRO =        -0.00000019
  eigenvalues    EBANDS =       -84.40102541
  atomic energy  EATOM  =       197.04175453
  Solvation  Ediel_sol  =         0.00000000
  ---------------------------------------------------
  free energy    TOTEN  =        17.30022869 eV

  energy without entropy =       17.30022887  energy(sigma->0) =       17.30022878


--------------------------------------------------------------------------------------------------------




--------------------------------------- Iteration      1(   2)  ---------------------------------------


     EDDAV:  cpu time    0.1481: real time    0.1482
       DOS:  cpu time    0.0002: real time    0.0002
    --------------------------------------------
      LOOP:  cpu time    0.1483: real time    0.1484

 eigenvalue-minimisations  :    72
 total energy-change (2. order) :-0.3924403E+02  (-0.3924403E+02)
 number of electron       8.0000000 magnetization 
 augmentation part        8.0000000 magnetization 

 Free energy of the ion-electron system (eV)
  ---------------------------------------------------
  alpha Z        PSCENC =         0.23457282
  Ewald energy   TEWEN  =       126.65328705
  -Hartree energ DENC   =      -243.54808677
  -exchange      EXHF   =         0.00000000
  -V(xc)+E(xc)   XCENC  =        21.92464358
  PAW double counting   =       117.05815612     -117.66307307
  entropy T*S    EENTRO =        -0.00000000
  eigenvalues    EBANDS =      -123.64505595
  atomic energy  EATOM  =       197.04175453
  Solvation  Ediel_sol  =         0.00000000
  ---------------------------------------------------
  free energy    TOTEN  =       -21.94380167 eV

  energy without entropy =      -21.94380167  energy(sigma->0) =      -21.94380167


--------------------------------------------------------------------------------------------------------




--------------------------------------- Iteration      1(   3)  ---------------------------------------


     EDDAV:  cpu time    0.1364: real time    0.1364
       DOS:  cpu time    0.0002: real time    0.0002
    --------------------------------------------
      LOOP:  cpu time    0.1366: real time    0.1366

 eigenvalue-minimisations  :    64
 total energy-change (2. order) :-0.5133421E+01  (-0.5133421E+01)
 number of electron       8.0000000 magnetization 
 augmentation part        8.0000000 magnetization 

 Free energy of the ion-electron system (eV)
  ---------------------------------------------------
  alpha Z        PSCENC =         0.23457282
  Ewald energy   TEWEN  =       126.65328705
  -Hartree energ DENC   =      -243.54808677
  -exchange      EXHF   =         0.00000000
  -V(xc)+E(xc)   XCENC  =        21.92464358
  PAW double counting   =       117.05815612     -117.66307307
  entropy T*S    EENTRO =        -0.00000000
  eigenvalues    EBANDS =      -128.77847698
  atomic energy  EATOM  =       197.04175453
  Solvation  Ediel_sol  =         0.00000000
  ---------------------------------------------------
  free energy    TOTEN  =       -27.07722270 eV

  energy without entropy =      -27.07722270  energy(sigma->0) =      -27.07722270


--------------------------------------------------------------------------------------------------------




--------------------------------------- Iteration      1(   4)  ---------------------------------------


     EDDAV:  cpu time    0.2260: real time    0.2284
       DOS:  cpu time    0.0003: real time    0.0003
    --------------------------------------------
      LOOP:  cpu time    0.2263: real time    0.2287

 eigenvalue-minimisations  :   128
 total energy-change (2. order) :-0.2333070E+00  (-0.2333070E+00)
 number of electron       8.0000000 magnetization 
 augmentation part        8.0000000 magnetization 

 Free energy of the ion-electron system (eV)
  ---------------------------------------------------
  alpha Z        PSCENC =         0.23457282
  Ewald energy   TEWEN  =       126.65328705
  -Hartree energ DENC   =      -243.54808677
  -exchange      EXHF   =         0.00000000
  -V(xc)+E(xc)   XCENC  =        21.92464358
  PAW double counting   =       117.05815612     -117.66307307
  entropy T*S    EENTRO =        -0.00000000
  eigenvalues    EBANDS =      -129.01178402
  atomic energy  EATOM  =       197.04175453
  Solvation  Ediel_sol  =         0.00000000
  ---------------------------------------------------
  free energy    TOTEN  =       -27.31052974 eV

  energy without entropy =      -27.31052974  energy(sigma->0) =      -27.31052974


--------------------------------------------------------------------------------------------------------




--------------------------------------- Iteration      1(   5)  ---------------------------------------


     EDDAV:  cpu time    0.1809: real time    0.1809
       DOS:  cpu time    0.0002: real time    0.0002
    CHARGE:  cpu time    0.0180: real time    0.0180
    MIXING:  cpu time    0.0044: real time    0.0044
    --------------------------------------------
      LOOP:  cpu time    0.2035: real time    0.2035

 eigenvalue-minimisations  :    96
 total energy-change (2. order) :-0.9543597E-04  (-0.9543602E-04)
 number of electron       8.0000001 magnetization 
 augmentation part        0.2197361 magnetization 

 Broyden mixing:
  rms(total) = 0.84444E+00    rms(broyden)= 0.84419E+00
  rms(prec ) = 0.11909E+01
  weight for this iteration     100.00

 Free energy of the ion-electron system (eV)
  ---------------------------------------------------
  alpha Z        PSCENC =         0.23457282
  Ewald energy   TEWEN  =       126.65328705
  -Hartree energ DENC   =      -243.54808677
  -exchange      EXHF   =         0.00000000
  -V(xc)+E(xc)   XCENC  =        21.92464358
  PAW double counting   =       117.05815612     -117.66307307
  entropy T*S    EENTRO =        -0.00000000
  eigenvalues    EBANDS =      -129.01187946
  atomic energy  EATOM  =       197.04175453
  Solvation  Ediel_sol  =         0.00000000
  ---------------------------------------------------
  free energy    TOTEN  =       -27.31062518 eV

  energy without entropy =      -27.31062518  energy(sigma->0) =      -27.31062518


--------------------------------------------------------------------------------------------------------




--------------------------------------- Iteration      1(   6)  ---------------------------------------


    POTLOK:  cpu time    0.1466: real time    0.1466
    SETDIJ:  cpu time    0.0023: real time    0.0023
    EDDIAG:  cpu time    0.0365: real time    0.0467
  RMM-DIIS:  cpu time    0.1440: real time    0.1440
    ORTHCH:  cpu time    0.0016: real time    0.0016
       DOS:  cpu time    0.0002: real time    0.0002
    CHARGE:  cpu time    0.0172: real time    0.0172
    MIXING:  cpu time    0.0050: real time    0.0069
    --------------------------------------------
      LOOP:  cpu time    0.3534: real time    0.3655

 eigenvalue-minimisations  :    64
 total energy-change (2. order) : 0.2720990E+01  (-0.4966695E+00)
 number of electron       8.0000001 magnetization 
 augmentation part        0.1936879 magnetization 

 Broyden mixing:
  rms(total) = 0.41775E+00    rms(broyden)= 0.41764E+00
  rms(prec ) = 0.53851E+00
  weight for this iteration     100.00

 eigenvalues of (default mixing * dielectric matrix)
  average eigenvalue GAMMA=   1.2927
  1.2927

 Free energy of the ion-electron system (eV)
  ---------------------------------------------------
  alpha Z        PSCENC =         0.23457282
  Ewald energy   TEWEN  =       126.65328705
  -Hartree energ DENC   =      -262.67487588
  -exchange      EXHF   =         0.00000000
  -V(xc)+E(xc)   XCENC  =        23.08640862
  PAW double counting   =       233.38022419     -234.15171309
  entropy T*S    EENTRO =        -0.00000000
  eigenvalues    EBANDS =      -108.15929345
  atomic energy  EATOM  =       197.04175453
  Solvation  Ediel_sol  =         0.00000000
  ---------------------------------------------------
  free energy    TOTEN  =       -24.58963521 eV

  energy without entropy =      -24.58963521  energy(sigma->0) =      -24.58963521


--------------------------------------------------------------------------------------------------------




--------------------------------------- Iteration      1(   7)  ---------------------------------------


    POTLOK:  cpu time    0.1355: real time    0.1355
    SETDIJ:  cpu time    0.0021: real time    0.0021
    EDDIAG:  cpu time    0.0306: real time    0.0306
  RMM-DIIS:  cpu time    0.1357: real time    0.1357
    ORTHCH:  cpu time    0.0016: real time    0.0016
       DOS:  cpu time    0.0002: real time    0.0002
    CHARGE:  cpu time    0.0157: real time    0.0157
    MIXING:  cpu time    0.0048: real time    0.0048
    --------------------------------------------
      LOOP:  cpu time    0.3261: real time    0.3262

 eigenvalue-minimisations  :    64
 total energy-change (2. order) : 0.4596017E+00  (-0.1058036E+00)
 number of electron       8.0000001 magnetization 
 augmentation part        0.1838410 magnetization 

 Broyden mixing:
  rms(total) = 0.22358E+00    rms(broyden)= 0.22351E+00
  rms(prec ) = 0.27011E+00
  weight for this iteration     100.00

 eigenvalues of (default mixing * dielectric matrix)
  average eigenvalue GAMMA=   1.8368
  1.4367  2.2368

 Free energy of the ion-electron system (eV)
  ---------------------------------------------------
  alpha Z        PSCENC =         0.23457282
  Ewald energy   TEWEN  =       126.65328705
  -Hartree energ DENC   =      -273.73935107
  -exchange      EXHF   =         0.00000000
  -V(xc)+E(xc)   XCENC  =        23.90427683
  PAW double counting   =       351.22795138     -352.03394272
  entropy T*S    EENTRO =        -0.00000000
  eigenvalues    EBANDS =       -97.41858235
  atomic energy  EATOM  =       197.04175453
  Solvation  Ediel_sol  =         0.00000000
  ---------------------------------------------------
  free energy    TOTEN  =       -24.13003353 eV

  energy without entropy =      -24.13003353  energy(sigma->0) =      -24.13003353


--------------------------------------------------------------------------------------------------------




--------------------------------------- Iteration      1(   8)  ---------------------------------------


    POTLOK:  cpu time    0.1317: real time    0.1318
    SETDIJ:  cpu time    0.0024: real time    0.0024
    EDDIAG:  cpu time    0.0306: real time    0.0306
  RMM-DIIS:  cpu time    0.1369: real time    0.1369
    ORTHCH:  cpu time    0.0016: real time    0.0016
       DOS:  cpu time    0.0003: real time    0.0003
    CHARGE:  cpu time    0.0155: real time    0.0155
    MIXING:  cpu time    0.0048: real time    0.0048
    --------------------------------------------
      LOOP:  cpu time    0.3237: real time    0.3238

 eigenvalue-minimisations  :    64
 total energy-change (2. order) : 0.1433942E+00  (-0.1633758E-01)
 number of electron       8.0000001 magnetization 
 augmentation part        0.1824999 magnetization 

 Broyden mixing:
  rms(total) = 0.22954E-01    rms(broyden)= 0.22926E-01
  rms(prec ) = 0.51795E-01
  weight for this iteration     100.00

 eigenvalues of (default mixing * dielectric matrix)
  average eigenvalue GAMMA=   1.5388
  2.2474  0.9821  1.3868

 Free energy of the ion-electron system (eV)
  ---------------------------------------------------
  alpha Z        PSCENC =         0.23457282
  Ewald energy   TEWEN  =       126.65328705
  -Hartree energ DENC   =      -279.13546712
  -exchange      EXHF   =         0.00000000
  -V(xc)+E(xc)   XCENC  =        24.43877497
  PAW double counting   =       454.08626976     -454.86118023
  entropy T*S    EENTRO =        -0.00000000
  eigenvalues    EBANDS =       -92.44465112
  atomic energy  EATOM  =       197.04175453
  Solvation  Ediel_sol  =         0.00000000
  ---------------------------------------------------
  free energy    TOTEN  =       -23.98663933 eV

  energy without entropy =      -23.98663933  energy(sigma->0) =      -23.98663933


--------------------------------------------------------------------------------------------------------




--------------------------------------- Iteration      1(   9)  ---------------------------------------


    POTLOK:  cpu time    0.1323: real time    0.1323
    SETDIJ:  cpu time    0.0023: real time    0.0023
    EDDIAG:  cpu time    0.0304: real time    0.0304
  RMM-DIIS:  cpu time    0.1385: real time    0.1385
    ORTHCH:  cpu time    0.0016: real time    0.0016
       DOS:  cpu time    0.0002: real time    0.0002
    CHARGE:  cpu time    0.0160: real time    0.0160
    MIXING:  cpu time    0.0053: real time    0.0065
    --------------------------------------------
      LOOP:  cpu time    0.3266: real time    0.3278

 eigenvalue-minimisations  :    64
 total energy-change (2. order) : 0.5520235E-02  (-0.1073981E-02)
 number of electron       8.0000001 magnetization 
 augmentation part        0.1819537 magnetization 

 Broyden mixing:
  rms(total) = 0.19153E-01    rms(broyden)= 0.19149E-01
  rms(prec ) = 0.39469E-01
  weight for this iteration     100.00

 eigenvalues of (default mixing * dielectric matrix)
  average eigenvalue GAMMA=   2.0725
  1.0053  1.3543  2.9652  2.9652

 Free energy of the ion-electron system (eV)
  ---------------------------------------------------
  alpha Z        PSCENC =         0.23457282
  Ewald energy   TEWEN  =       126.65328705
  -Hartree energ DENC   =      -280.36041262
  -exchange      EXHF   =         0.00000000
  -V(xc)+E(xc)   XCENC  =        24.50509223
  PAW double counting   =       456.55153179     -457.32922573
  entropy T*S    EENTRO =        -0.00000000
  eigenvalues    EBANDS =       -91.27771917
  atomic energy  EATOM  =       197.04175453
  Solvation  Ediel_sol  =         0.00000000
  ---------------------------------------------------
  free energy    TOTEN  =       -23.98111910 eV

  energy without entropy =      -23.98111910  energy(sigma->0) =      -23.98111910


--------------------------------------------------------------------------------------------------------




--------------------------------------- Iteration      1(  10)  ---------------------------------------


    POTLOK:  cpu time    0.1290: real time    0.1291
    SETDIJ:  cpu time    0.0024: real time    0.0024
    EDDIAG:  cpu time    0.0303: real time    0.0303
  RMM-DIIS:  cpu time    0.1381: real time    0.1381
    ORTHCH:  cpu time    0.0015: real time    0.0015
       DOS:  cpu time    0.0002: real time    0.0002
    CHARGE:  cpu time    0.0159: real time    0.0159
    MIXING:  cpu time    0.0051: real time    0.0051
    --------------------------------------------
      LOOP:  cpu time    0.3225: real time    0.3225

 eigenvalue-minimisations  :    64
 total energy-change (2. order) : 0.6348978E-02  (-0.2406548E-02)
 number of electron       8.0000001 magnetization 
 augmentation part        0.1809379 magnetization 

 Broyden mixing:
  rms(total) = 0.26699E-01    rms(broyden)= 0.26697E-01
  rms(prec ) = 0.34279E-01
  weight for this iteration     100.00

 eigenvalues of (default mixing * dielectric matrix)
  average eigenvalue GAMMA=   1.7897
  3.0564  2.3790  0.9865  1.2632  1.2632

 Free energy of the ion-electron system (eV)
  ---------------------------------------------------
  alpha Z        PSCENC =         0.23457282
  Ewald energy   TEWEN  =       126.65328705
  -Hartree energ DENC   =      -282.51075267
  -exchange      EXHF   =         0.00000000
  -V(xc)+E(xc)   XCENC  =        24.57506334
  PAW double counting   =       441.74772913     -442.52870538
  entropy T*S    EENTRO =        -0.00000000
  eigenvalues    EBANDS =       -89.18771895
  atomic energy  EATOM  =       197.04175453
  Solvation  Ediel_sol  =         0.00000000
  ---------------------------------------------------
  free energy    TOTEN  =       -23.97477012 eV

  energy without entropy =      -23.97477012  energy(sigma->0) =      -23.97477012


--------------------------------------------------------------------------------------------------------




--------------------------------------- Iteration      1(  11)  ---------------------------------------


    POTLOK:  cpu time    0.1258: real time    0.1258
    SETDIJ:  cpu time    0.0021: real time    0.0021
    EDDIAG:  cpu time    0.0300: real time    0.0300
  RMM-DIIS:  cpu time    0.1376: real time    0.1376
    ORTHCH:  cpu time    0.0015: real time    0.0015
       DOS:  cpu time    0.0002: real time    0.0002
    CHARGE:  cpu time    0.0157: real time    0.0157
    MIXING:  cpu time    0.0051: real time    0.0051
    --------------------------------------------
      LOOP:  cpu time    0.3180: real time    0.3180

 eigenvalue-minimisations  :    64
 total energy-change (2. order) :-0.1035587E-02  (-0.9600369E-03)
 number of electron       8.0000001 magnetization 
 augmentation part        0.1813435 magnetization 

 Broyden mixing:
  rms(total) = 0.10612E-01    rms(broyden)= 0.10608E-01
  rms(prec ) = 0.16013E-01
  weight for this iteration     100.00

 eigenvalues of (default mixing * dielectric matrix)
  average eigenvalue GAMMA=   2.2448
  4.7166  3.0360  2.4221  1.2479  1.0232  1.0232

 Free energy of the ion-electron system (eV)
  ---------------------------------------------------
  alpha Z        PSCENC =         0.23457282
  Ewald energy   TEWEN  =       126.65328705
  -Hartree energ DENC   =      -282.40836480
  -exchange      EXHF   =         0.00000000
  -V(xc)+E(xc)   XCENC  =        24.59003973
  PAW double counting   =       450.67994006     -451.45303865
  entropy T*S    EENTRO =        -0.00000000
  eigenvalues    EBANDS =       -89.31399646
  atomic energy  EATOM  =       197.04175453
  Solvation  Ediel_sol  =         0.00000000
  ---------------------------------------------------
  free energy    TOTEN  =       -23.97580570 eV

  energy without entropy =      -23.97580570  energy(sigma->0) =      -23.97580570


--------------------------------------------------------------------------------------------------------




--------------------------------------- Iteration      1(  12)  ---------------------------------------


    POTLOK:  cpu time    0.1195: real time    0.1195
    SETDIJ:  cpu time    0.0023: real time    0.0023
    EDDIAG:  cpu time    0.0302: real time    0.0302
  RMM-DIIS:  cpu time    0.1392: real time    0.1392
    ORTHCH:  cpu time    0.0015: real time    0.0015
       DOS:  cpu time    0.0002: real time    0.0002
    CHARGE:  cpu time    0.0158: real time    0.0157
    MIXING:  cpu time    0.0052: real time    0.0052
    --------------------------------------------
      LOOP:  cpu time    0.3139: real time    0.3139

 eigenvalue-minimisations  :    64
 total energy-change (2. order) :-0.8762853E-02  (-0.2319014E-03)
 number of electron       8.0000001 magnetization 
 augmentation part        0.1814790 magnetization 

 Broyden mixing:
  rms(total) = 0.10870E-01    rms(broyden)= 0.10869E-01
  rms(prec ) = 0.14368E-01
  weight for this iteration     100.00

 eigenvalues of (default mixing * dielectric matrix)
  average eigenvalue GAMMA=   2.0050
  4.7017  2.8887  2.4090  1.1571  1.0268  1.0268  0.8245

 Free energy of the ion-electron system (eV)
  ---------------------------------------------------
  alpha Z        PSCENC =         0.23457282
  Ewald energy   TEWEN  =       126.65328705
  -Hartree energ DENC   =      -282.65363021
  -exchange      EXHF   =         0.00000000
  -V(xc)+E(xc)   XCENC  =        24.58217996
  PAW double counting   =       446.96454119     -447.73759162
  entropy T*S    EENTRO =        -0.00000000
  eigenvalues    EBANDS =       -89.06968229
  atomic energy  EATOM  =       197.04175453
  Solvation  Ediel_sol  =         0.00000000
  ---------------------------------------------------
  free energy    TOTEN  =       -23.98456856 eV

  energy without entropy =      -23.98456856  energy(sigma->0) =      -23.98456856


--------------------------------------------------------------------------------------------------------




--------------------------------------- Iteration      1(  13)  ---------------------------------------


    POTLOK:  cpu time    0.1190: real time    0.1190
    SETDIJ:  cpu time    0.0022: real time    0.0022
    EDDIAG:  cpu time    0.0304: real time    0.0304
  RMM-DIIS:  cpu time    0.1361: real time    0.1361
    ORTHCH:  cpu time    0.0015: real time    0.0015
       DOS:  cpu time    0.0002: real time    0.0002
    CHARGE:  cpu time    0.0157: real time    0.0157
    MIXING:  cpu time    0.0054: real time    0.0054
    --------------------------------------------
      LOOP:  cpu time    0.3106: real time    0.3107

 eigenvalue-minimisations  :    64
 total energy-change (2. order) :-0.8002756E-03  (-0.1233586E-03)
 number of electron       8.0000001 magnetization 
 augmentation part        0.1812083 magnetization 

 Broyden mixing:
  rms(total) = 0.29613E-02    rms(broyden)= 0.29603E-02
  rms(prec ) = 0.47639E-02
  weight for this iteration     100.00

 eigenvalues of (default mixing * dielectric matrix)
  average eigenvalue GAMMA=   2.3812
  5.9640  4.0279  2.3703  2.3507  1.2236  1.2236  0.9800  0.9098

 Free energy of the ion-electron system (eV)
  ---------------------------------------------------
  alpha Z        PSCENC =         0.23457282
  Ewald energy   TEWEN  =       126.65328705
  -Hartree energ DENC   =      -282.83201170
  -exchange      EXHF   =         0.00000000
  -V(xc)+E(xc)   XCENC  =        24.58658505
  PAW double counting   =       446.71712721     -447.49255315
  entropy T*S    EENTRO =        -0.00000000
  eigenvalues    EBANDS =       -88.89413064
  atomic energy  EATOM  =       197.04175453
  Solvation  Ediel_sol  =         0.00000000
  ---------------------------------------------------
  free energy    TOTEN  =       -23.98536883 eV

  energy without entropy =      -23.98536883  energy(sigma->0) =      -23.98536883


--------------------------------------------------------------------------------------------------------




--------------------------------------- Iteration      1(  14)  ---------------------------------------


    POTLOK:  cpu time    0.1176: real time    0.1176
    SETDIJ:  cpu time    0.0023: real time    0.0023
    EDDIAG:  cpu time    0.0304: real time    0.0304
  RMM-DIIS:  cpu time    0.1365: real time    0.1365
    ORTHCH:  cpu time    0.0015: real time    0.0015
       DOS:  cpu time    0.0002: real time    0.0002
    CHARGE:  cpu time    0.0155: real time    0.0155
    MIXING:  cpu time    0.0055: real time    0.0055
    --------------------------------------------
      LOOP:  cpu time    0.3094: real time    0.3094

 eigenvalue-minimisations  :    64
 total energy-change (2. order) :-0.2811111E-02  (-0.7763767E-04)
 number of electron       8.0000001 magnetization 
 augmentation part        0.1811575 magnetization 

 Broyden mixing:
  rms(total) = 0.13492E-02    rms(broyden)= 0.13476E-02
  rms(prec ) = 0.20355E-02
  weight for this iteration     100.00

 eigenvalues of (default mixing * dielectric matrix)
  average eigenvalue GAMMA=   2.3081
  6.3161  3.7468  2.6578  2.2822  0.9413  0.9788  1.2140  1.2140  1.4217

 Free energy of the ion-electron system (eV)
  ---------------------------------------------------
  alpha Z        PSCENC =         0.23457282
  Ewald energy   TEWEN  =       126.65328705
  -Hartree energ DENC   =      -282.77837327
  -exchange      EXHF   =         0.00000000
  -V(xc)+E(xc)   XCENC  =        24.57526874
  PAW double counting   =       446.34918652     -447.12499084
  entropy T*S    EENTRO =        -0.00000000
  eigenvalues    EBANDS =       -88.93888551
  atomic energy  EATOM  =       197.04175453
  Solvation  Ediel_sol  =         0.00000000
  ---------------------------------------------------
  free energy    TOTEN  =       -23.98817994 eV

  energy without entropy =      -23.98817994  energy(sigma->0) =      -23.98817994


--------------------------------------------------------------------------------------------------------




--------------------------------------- Iteration      1(  15)  ---------------------------------------


    POTLOK:  cpu time    0.1169: real time    0.1169
    SETDIJ:  cpu time    0.0024: real time    0.0024
    EDDIAG:  cpu time    0.0306: real time    0.0306
  RMM-DIIS:  cpu time    0.1387: real time    0.1387
    ORTHCH:  cpu time    0.0016: real time    0.0016
       DOS:  cpu time    0.0002: real time    0.0002
    CHARGE:  cpu time    0.0158: real time    0.0158
    MIXING:  cpu time    0.0057: real time    0.0057
    --------------------------------------------
      LOOP:  cpu time    0.3118: real time    0.3118

 eigenvalue-minimisations  :    64
 total energy-change (2. order) :-0.2919648E-03  (-0.9078616E-05)
 number of electron       8.0000001 magnetization 
 augmentation part        0.1810828 magnetization 

 Broyden mixing:
  rms(total) = 0.19654E-02    rms(broyden)= 0.19650E-02
  rms(prec ) = 0.26763E-02
  weight for this iteration     100.00

 eigenvalues of (default mixing * dielectric matrix)
  average eigenvalue GAMMA=   2.5042
  7.4849  4.7297  2.8063  2.5487  2.1478  1.2334  1.2334  0.9725  0.9725  0.9131

 Free energy of the ion-electron system (eV)
  ---------------------------------------------------
  alpha Z        PSCENC =         0.23457282
  Ewald energy   TEWEN  =       126.65328705
  -Hartree energ DENC   =      -282.84057075
  -exchange      EXHF   =         0.00000000
  -V(xc)+E(xc)   XCENC  =        24.57878677
  PAW double counting   =       446.42254087     -447.19838941
  entropy T*S    EENTRO =        -0.00000000
  eigenvalues    EBANDS =       -88.88045379
  atomic energy  EATOM  =       197.04175453
  Solvation  Ediel_sol  =         0.00000000
  ---------------------------------------------------
  free energy    TOTEN  =       -23.98847191 eV

  energy without entropy =      -23.98847191  energy(sigma->0) =      -23.98847191


--------------------------------------------------------------------------------------------------------




--------------------------------------- Iteration      1(  16)  ---------------------------------------


    POTLOK:  cpu time    0.1185: real time    0.1185
    SETDIJ:  cpu time    0.0024: real time    0.0024
    EDDIAG:  cpu time    0.0298: real time    0.0298
  RMM-DIIS:  cpu time    0.1349: real time    0.1350
    ORTHCH:  cpu time    0.0015: real time    0.0015
       DOS:  cpu time    0.0002: real time    0.0002
    CHARGE:  cpu time    0.0155: real time    0.0155
    MIXING:  cpu time    0.0058: real time    0.0058
    --------------------------------------------
      LOOP:  cpu time    0.3085: real time    0.3085

 eigenvalue-minimisations  :    64
 total energy-change (2. order) :-0.2275209E-03  (-0.9307670E-05)
 number of electron       8.0000001 magnetization 
 augmentation part        0.1811308 magnetization 

 Broyden mixing:
  rms(total) = 0.17861E-03    rms(broyden)= 0.17794E-03
  rms(prec ) = 0.33715E-03
  weight for this iteration     100.00

 eigenvalues of (default mixing * dielectric matrix)
  average eigenvalue GAMMA=   2.5411
  7.8033  4.8891  3.1181  2.4658  2.1993  2.1993  1.2116  1.2116  0.9978  0.9279
  0.9279

 Free energy of the ion-electron system (eV)
  ---------------------------------------------------
  alpha Z        PSCENC =         0.23457282
  Ewald energy   TEWEN  =       126.65328705
  -Hartree energ DENC   =      -282.78296935
  -exchange      EXHF   =         0.00000000
  -V(xc)+E(xc)   XCENC  =        24.57619602
  PAW double counting   =       446.37632127     -447.15163090
  entropy T*S    EENTRO =        -0.00000000
  eigenvalues    EBANDS =       -88.93623088
  atomic energy  EATOM  =       197.04175453
  Solvation  Ediel_sol  =         0.00000000
  ---------------------------------------------------
  free energy    TOTEN  =       -23.98869943 eV

  energy without entropy =      -23.98869943  energy(sigma->0) =      -23.98869943


--------------------------------------------------------------------------------------------------------




--------------------------------------- Iteration      1(  17)  ---------------------------------------


    POTLOK:  cpu time    0.1186: real time    0.1186
    SETDIJ:  cpu time    0.0022: real time    0.0022
    EDDIAG:  cpu time    0.0296: real time    0.0296
  RMM-DIIS:  cpu time    0.1351: real time    0.1351
    ORTHCH:  cpu time    0.0015: real time    0.0015
       DOS:  cpu time    0.0002: real time    0.0002
    CHARGE:  cpu time    0.0156: real time    0.0156
    MIXING:  cpu time    0.0060: real time    0.0060
    --------------------------------------------
      LOOP:  cpu time    0.3089: real time    0.3089

 eigenvalue-minimisations  :    60
 total energy-change (2. order) :-0.5005626E-04  (-0.5706109E-06)
 number of electron       8.0000001 magnetization 
 augmentation part        0.1811243 magnetization 

 Broyden mixing:
  rms(total) = 0.39262E-03    rms(broyden)= 0.39261E-03
  rms(prec ) = 0.51696E-03
  weight for this iteration     100.00

 eigenvalues of (default mixing * dielectric matrix)
  average eigenvalue GAMMA=   2.5982
  8.5475  5.3126  3.9238  2.5345  2.5345  1.8021  1.2619  1.2619  1.1565  0.9819
  0.9308  0.9308

 Free energy of the ion-electron system (eV)
  ---------------------------------------------------
  alpha Z        PSCENC =         0.23457282
  Ewald energy   TEWEN  =       126.65328705
  -Hartree energ DENC   =      -282.80593589
  -exchange      EXHF   =         0.00000000
  -V(xc)+E(xc)   XCENC  =        24.57710324
  PAW double counting   =       446.36307222     -447.13852224
  entropy T*S    EENTRO =        -0.00000000
  eigenvalues    EBANDS =       -88.91408124
  atomic energy  EATOM  =       197.04175453
  Solvation  Ediel_sol  =         0.00000000
  ---------------------------------------------------
  free energy    TOTEN  =       -23.98874949 eV

  energy without entropy =      -23.98874949  energy(sigma->0) =      -23.98874949


--------------------------------------------------------------------------------------------------------




--------------------------------------- Iteration      1(  18)  ---------------------------------------


    POTLOK:  cpu time    0.1224: real time    0.1224
    SETDIJ:  cpu time    0.0023: real time    0.0023
    EDDIAG:  cpu time    0.0301: real time    0.0301
  RMM-DIIS:  cpu time    0.1343: real time    0.1343
    ORTHCH:  cpu time    0.0015: real time    0.0015
       DOS:  cpu time    0.0002: real time    0.0002
    CHARGE:  cpu time    0.0154: real time    0.0154
    MIXING:  cpu time    0.0063: real time    0.0063
    --------------------------------------------
      LOOP:  cpu time    0.3125: real time    0.3125

 eigenvalue-minimisations  :    60
 total energy-change (2. order) :-0.1315319E-04  (-0.3876814E-06)
 number of electron       8.0000001 magnetization 
 augmentation part        0.1811366 magnetization 

 Broyden mixing:
  rms(total) = 0.11876E-03    rms(broyden)= 0.11858E-03
  rms(prec ) = 0.15624E-03
  weight for this iteration     100.00

 eigenvalues of (default mixing * dielectric matrix)
  average eigenvalue GAMMA=   2.6352
  8.5868  5.4674  3.8057  2.6913  2.6913  2.5163  2.1543  1.2247  1.2247  1.0197
  0.9837  0.9837  0.9075

 Free energy of the ion-electron system (eV)
  ---------------------------------------------------
  alpha Z        PSCENC =         0.23457282
  Ewald energy   TEWEN  =       126.65328705
  -Hartree energ DENC   =      -282.79675120
  -exchange      EXHF   =         0.00000000
  -V(xc)+E(xc)   XCENC  =        24.57683906
  PAW double counting   =       446.42371132     -447.19905140
  entropy T*S    EENTRO =        -0.00000000
  eigenvalues    EBANDS =       -88.92312483
  atomic energy  EATOM  =       197.04175453
  Solvation  Ediel_sol  =         0.00000000
  ---------------------------------------------------
  free energy    TOTEN  =       -23.98876264 eV

  energy without entropy =      -23.98876264  energy(sigma->0) =      -23.98876264


--------------------------------------------------------------------------------------------------------




--------------------------------------- Iteration      1(  19)  ---------------------------------------


    POTLOK:  cpu time    0.1233: real time    0.1233
    SETDIJ:  cpu time    0.0023: real time    0.0023
    EDDIAG:  cpu time    0.0300: real time    0.0300
  RMM-DIIS:  cpu time    0.1118: real time    0.1119
    ORTHCH:  cpu time    0.0015: real time    0.0015
       DOS:  cpu time    0.0002: real time    0.0002
    CHARGE:  cpu time    0.0159: real time    0.0159
    MIXING:  cpu time    0.0064: real time    0.0064
    --------------------------------------------
      LOOP:  cpu time    0.2914: real time    0.2915

 eigenvalue-minimisations  :    48
 total energy-change (2. order) :-0.5121765E-05  (-0.7826155E-07)
 number of electron       8.0000001 magnetization 
 augmentation part        0.1811408 magnetization 

 Broyden mixing:
  rms(total) = 0.20988E-03    rms(broyden)= 0.20985E-03
  rms(prec ) = 0.27638E-03
  weight for this iteration     100.00

 eigenvalues of (default mixing * dielectric matrix)
  average eigenvalue GAMMA=   2.5704
  8.6823  5.6145  4.0377  3.5497  2.4396  2.4396  1.9993  1.2327  1.2327  1.0540
  0.9661  0.9255  0.9255  0.8865

 Free energy of the ion-electron system (eV)
  ---------------------------------------------------
  alpha Z        PSCENC =         0.23457282
  Ewald energy   TEWEN  =       126.65328705
  -Hartree energ DENC   =      -282.79094796
  -exchange      EXHF   =         0.00000000
  -V(xc)+E(xc)   XCENC  =        24.57641764
  PAW double counting   =       446.40612691     -447.18145110
  entropy T*S    EENTRO =        -0.00000000
  eigenvalues    EBANDS =       -88.92852767
  atomic energy  EATOM  =       197.04175453
  Solvation  Ediel_sol  =         0.00000000
  ---------------------------------------------------
  free energy    TOTEN  =       -23.98876776 eV

  energy without entropy =      -23.98876776  energy(sigma->0) =      -23.98876776


--------------------------------------------------------------------------------------------------------




--------------------------------------- Iteration      1(  20)  ---------------------------------------


    POTLOK:  cpu time    0.1249: real time    0.1250
    SETDIJ:  cpu time    0.0023: real time    0.0023
    EDDIAG:  cpu time    0.0307: real time    0.0307
  RMM-DIIS:  cpu time    0.1104: real time    0.1104
    ORTHCH:  cpu time    0.0015: real time    0.0015
       DOS:  cpu time    0.0002: real time    0.0002
    --------------------------------------------
      LOOP:  cpu time    0.2700: real time    0.2700

 eigenvalue-minimisations  :    48
 total energy-change (2. order) :-0.1645881E-06  (-0.5289206E-07)
 number of electron       8.0000001 magnetization 
 augmentation part        0.1811408 magnetization 

 Free energy of the ion-electron system (eV)
  ---------------------------------------------------
  alpha Z        PSCENC =         0.23457282
  Ewald energy   TEWEN  =       126.65328705
  -Hartree energ DENC   =      -282.79571119
  -exchange      EXHF   =         0.00000000
  -V(xc)+E(xc)   XCENC  =        24.57660595
  PAW double counting   =       446.40573013     -447.18111964
  entropy T*S    EENTRO =        -0.00000000
  eigenvalues    EBANDS =       -88.92388758
  atomic energy  EATOM  =       197.04175453
  Solvation  Ediel_sol  =         0.00000000
  ---------------------------------------------------
  free energy    TOTEN  =       -23.98876793 eV

  energy without entropy =      -23.98876793  energy(sigma->0) =      -23.98876793


--------------------------------------------------------------------------------------------------------




 average (electrostatic) potential at core
  the test charge radii are     0.5201  0.6991
  (the norm of the test charge is              1.0000)
       1 -41.3230       2 -41.3191       3 -41.5607       4 -41.4353       5 -58.0606
 
 
 
 E-fermi :  -8.1060     XC(G=0):  -0.6846     alpha+bet : -0.2040


 k-point     1 :       0.2500    0.2500    0.2500
  band No.  band energies     occupation 
      1     -16.7766      2.00000
      2      -9.3244      2.00000
      3      -9.3047      2.00000
      4      -9.0561      2.00000
      5      -0.3412      0.00000
      6       0.5362      0.00000
      7       0.6386      0.00000
      8       0.7067      0.00000

 k-point     2 :      -0.2500    0.2500    0.2500
  band No.  band energies     occupation 
      1     -16.7766      2.00000
      2      -9.3243      2.00000
      3      -9.3047      2.00000
      4      -9.0561      2.00000
      5      -0.3428      0.00000
      6       0.5356      0.00000
      7       0.6441      0.00000
      8       0.7077      0.00000

 k-point     3 :       0.2500   -0.2500    0.2500
  band No.  band energies     occupation 
      1     -16.7766      2.00000
      2      -9.3244      2.00000
      3      -9.3047      2.00000
      4      -9.0562      2.00000
      5      -0.3385      0.00000
      6       0.5293      0.00000
      7       0.6327      0.00000
      8       0.6950      0.00000

 k-point     4 :      -0.2500   -0.2500    0.2500
  band No.  band energies     occupation 
      1     -16.7767      2.00000
      2      -9.3245      2.00000
      3      -9.3048      2.00000
      4      -9.0563      2.00000
      5      -0.3390      0.00000
      6       0.5340      0.00000
      7       0.6400      0.00000
      8       0.6907      0.00000


--------------------------------------------------------------------------------------------------------


 soft charge-density along one line, spin component           1
         0         1         2         3         4         5         6         7         8         9
 total charge-density along one line
 
 pseudopotential strength for first ion, spin component:           1
 -2.340  -4.031  -0.001  -0.001   0.001
 -4.031  -6.860  -0.003  -0.004   0.002
 -0.001  -0.003  -0.339   0.002  -0.001
 -0.001  -0.004   0.002  -0.337  -0.001
  0.001   0.002  -0.001  -0.001  -0.340
 total augmentation occupancy for first ion, spin component:           1
  3.438  -0.621   0.213   0.311  -0.133
 -0.621   0.125  -0.040  -0.058   0.025
  0.213  -0.040   0.019   0.016  -0.007
  0.311  -0.058   0.016   0.031  -0.010
 -0.133   0.025  -0.007  -0.010   0.012


------------------------ aborting loop because EDIFF is reached ----------------------------------------


    CHARGE:  cpu time    0.0158: real time    0.0158
    FORLOC:  cpu time    0.0135: real time    0.0135
    FORNL :  cpu time    0.0210: real time    0.0210
    STRESS:  cpu time    0.1583: real time    0.1590
    FORCOR:  cpu time    0.1274: real time    0.1274
    FORHAR:  cpu time    0.0391: real time    0.0391
    MIXING:  cpu time    0.0064: real time    0.0064
    OFIELD:  cpu time    0.0000: real time    0.0000

  FORCE on cell =-STRESS in cart. coord.  units (eV):
  Direction    XX          YY          ZZ          XY          YZ          ZX
  --------------------------------------------------------------------------------------
  Alpha Z     0.23457     0.23457     0.23457
  Ewald      41.63579    43.03972    41.97774     1.92953     0.57767    -0.41045
  Hartree    92.96666    97.06854    92.76319     0.17534     0.49017    -0.25865
  E(xc)     -27.01990   -27.05783   -27.01870     0.00554     0.00535    -0.00313
  Local    -193.48162  -199.36570  -193.43685    -1.53299    -1.12953     0.67087
  n-local   -15.47114   -15.60922   -15.50190    -0.05667     0.03288    -0.01123
  augment     0.12332     0.12364     0.12192    -0.00503     0.00095    -0.00024
  Kinetic    99.41791   101.39862    99.43782    -0.20090    -0.28677     0.14908
  Fock        0.00000     0.00000     0.00000     0.00000     0.00000     0.00000
  -------------------------------------------------------------------------------------
  Total      -1.59441    -0.16766    -1.42220     0.31482    -0.30928     0.13625
  in kB      -2.47356    -0.26011    -2.20639     0.48840    -0.47981     0.21137
  external pressure =       -1.65 kB  Pullay stress =        0.00 kB

  kinetic pressure (ideal gas correction) =      0.00 kB
  total pressure  =     -1.65 kB
  Total+kin.    -2.474      -0.260      -2.206       0.488      -0.480       0.211

 VOLUME and BASIS-vectors are now :
 -----------------------------------------------------------------------------
  energy-cutoff  :      400.00
  volume of cell :     1032.73
      direct lattice vectors                 reciprocal lattice vectors
    10.271496086  0.000000000  0.000000000     0.097356801  0.000525322  0.000647849
    -0.052719056  9.770313977  0.000000000     0.000000000  0.102350856 -0.001999300
    -0.069562952  0.201016485 10.290708701     0.000000000  0.000000000  0.097175037

  length of vectors
    10.271496086  9.770456208 10.292906888     0.097360374  0.102370381  0.097175037


 FORCES acting on ions
    electron-ion (+dipol)            ewald-force                    non-local-force                 convergence-correction
 -----------------------------------------------------------------------------------------------
   -.169E+02 0.276E+02 0.399E+02   0.183E+02 -.300E+02 -.431E+02   -.171E+01 0.270E+01 0.399E+01   0.965E-04 -.786E-04 -.164E-03
   0.509E+02 -.566E+01 0.315E+01   -.550E+02 0.618E+01 -.343E+01   0.505E+01 -.558E+00 0.301E+00   -.208E-03 0.461E-04 -.816E-05
   -.247E+02 -.468E+02 0.154E+01   0.273E+02 0.521E+02 -.174E+01   -.267E+01 -.494E+01 0.151E+00   0.107E-03 0.155E-03 0.287E-05
   -.120E+02 0.223E+02 -.456E+02   0.131E+02 -.246E+02 0.498E+02   -.125E+01 0.223E+01 -.469E+01   0.744E-04 -.532E-04 0.192E-03
   0.333E+01 0.317E+01 0.136E+01   -.377E+01 -.362E+01 -.158E+01   0.158E-01 -.746E-01 -.984E-01   0.197E-03 0.187E-03 0.587E-04
 -----------------------------------------------------------------------------------------------
   0.555E+00 0.638E+00 0.352E+00   -.178E-14 -.355E-14 -.711E-14   -.556E+00 -.638E+00 -.352E+00   0.266E-03 0.257E-03 0.814E-04
 
 
 POSITION                                       TOTAL-FORCE (eV/Angst)
 -----------------------------------------------------------------------------------
      5.48131      4.04757      3.71084        -0.346089      0.274284      0.759917
      3.98952      4.77804      4.51526         0.934757     -0.043838      0.013990
      5.61625      5.61350      4.55299        -0.061166      0.362599     -0.050563
      5.36516      4.17891      5.55265        -0.105539     -0.067456     -0.407188
      5.10736      4.65100      4.58372        -0.422247     -0.524960     -0.316153
 -----------------------------------------------------------------------------------
    total drift:                               -0.000284      0.000630      0.000003


--------------------------------------------------------------------------------------------------------



  FREE ENERGIE OF THE ION-ELECTRON SYSTEM (eV)
  ---------------------------------------------------
  free  energy   TOTEN  =       -23.98876793 eV

  energy  without entropy=      -23.98876793  energy(sigma->0) =      -23.98876793
 


--------------------------------------------------------------------------------------------------------


    POTLOK:  cpu time    0.1259: real time    0.1259


--------------------------------------------------------------------------------------------------------


 stress matrix after NEB project (eV)
     -1.59441      0.31482      0.13625
      0.31482     -0.16766     -0.30928
      0.13625     -0.30928     -1.42220
  FORCES: max atom, RMS     0.935889    0.710136
  FORCE total and by dimension    1.587912    0.934757
  Stress total and by dimension    2.240435    1.594409
           RANDOM_SEED =         581384177                0                0
           RANDOM_SEED =         581384177               30                0
   IONSTEP:  cpu time    0.0040: real time    0.0071

  ENERGY OF THE ELECTRON-ION-THERMOSTAT SYSTEM (eV)
  ---------------------------------------------------
% ion-electron   TOTEN  =       -23.988768  see above
  kinetic energy EKIN   =         0.000606
  kin. lattice  EKIN_LAT=         0.000000  (temperature    1.17 K)
  nose potential ES     =         0.000000
  nose kinetic   EPS    =         0.000000
  ---------------------------------------------------
  total energy   ETOTAL =       -23.988162 eV

  maximum distance moved by ions :      0.22E-03

    WAVPRE:  cpu time    0.0397: real time    0.0397
    FEWALD:  cpu time    0.0005: real time    0.0005
    ORTHCH:  cpu time    0.0087: real time    0.0087
     LOOP+:  cpu time    6.3290: real time    6.3855


--------------------------------------- Iteration      2(   1)  ---------------------------------------


    POTLOK:  cpu time    0.1237: real time    0.1238
    SETDIJ:  cpu time    0.0021: real time    0.0021
     EDDAV:  cpu time    0.1770: real time    0.1771
       DOS:  cpu time    0.0003: real time    0.0003
    CHARGE:  cpu time    0.0152: real time    0.0152
    MIXING:  cpu time    0.0045: real time    0.0045
    --------------------------------------------
      LOOP:  cpu time    0.3229: real time    0.3230

 eigenvalue-minimisations  :    96
 total energy-change (2. order) :-0.4716176E-02  (-0.5128805E-03)
 number of electron       8.0000001 magnetization 
 augmentation part        0.1815217 magnetization 

 Broyden mixing:
  rms(total) = 0.34903E-02    rms(broyden)= 0.34879E-02
  rms(prec ) = 0.44576E-02
  weight for this iteration     100.00

 Free energy of the ion-electron system (eV)
  ---------------------------------------------------
  alpha Z        PSCENC =         0.23457282
  Ewald energy   TEWEN  =       126.89815876
  -Hartree energ DENC   =      -282.94533201
  -exchange      EXHF   =         0.00000000
  -V(xc)+E(xc)   XCENC  =        24.58412461
  PAW double counting   =       446.38726463     -447.16265802
  entropy T*S    EENTRO =        -0.00000000
  eigenvalues    EBANDS =       -89.03136927
  atomic energy  EATOM  =       197.04175453
  Solvation  Ediel_sol  =         0.00000000
  ---------------------------------------------------
  free energy    TOTEN  =       -23.99348394 eV

  energy without entropy =      -23.99348394  energy(sigma->0) =      -23.99348394


--------------------------------------------------------------------------------------------------------




--------------------------------------- Iteration      2(   2)  ---------------------------------------


    POTLOK:  cpu time    0.1305: real time    0.1305
    SETDIJ:  cpu time    0.0024: real time    0.0024
    EDDIAG:  cpu time    0.0306: real time    0.0306
  RMM-DIIS:  cpu time    0.1382: real time    0.1382
    ORTHCH:  cpu time    0.0016: real time    0.0016
       DOS:  cpu time    0.0002: real time    0.0002
    CHARGE:  cpu time    0.0158: real time    0.0158
    MIXING:  cpu time    0.0047: real time    0.0046
    --------------------------------------------
      LOOP:  cpu time    0.3239: real time    0.3239

 eigenvalue-minimisations  :    64
 total energy-change (2. order) : 0.2351892E-04  (-0.1531341E-04)
 number of electron       8.0000001 magnetization 
 augmentation part        0.1814609 magnetization 

 Broyden mixing:
  rms(total) = 0.17334E-02    rms(broyden)= 0.17328E-02
  rms(prec ) = 0.20590E-02
  weight for this iteration     100.00

 eigenvalues of (default mixing * dielectric matrix)
  average eigenvalue GAMMA=   1.5902
  1.5902

 Free energy of the ion-electron system (eV)
  ---------------------------------------------------
  alpha Z        PSCENC =         0.23457282
  Ewald energy   TEWEN  =       126.89815876
  -Hartree energ DENC   =      -282.99743296
  -exchange      EXHF   =         0.00000000
  -V(xc)+E(xc)   XCENC  =        24.58688457
  PAW double counting   =       447.01182644     -447.78781676
  entropy T*S    EENTRO =        -0.00000000
  eigenvalues    EBANDS =       -88.98140782
  atomic energy  EATOM  =       197.04175453
  Solvation  Ediel_sol  =         0.00000000
  ---------------------------------------------------
  free energy    TOTEN  =       -23.99346042 eV

  energy without entropy =      -23.99346042  energy(sigma->0) =      -23.99346042


--------------------------------------------------------------------------------------------------------




--------------------------------------- Iteration      2(   3)  ---------------------------------------


    POTLOK:  cpu time    0.1302: real time    0.1302
    SETDIJ:  cpu time    0.0024: real time    0.0024
    EDDIAG:  cpu time    0.0301: real time    0.0301
  RMM-DIIS:  cpu time    0.1364: real time    0.1364
    ORTHCH:  cpu time    0.0015: real time    0.0015
       DOS:  cpu time    0.0002: real time    0.0002
    CHARGE:  cpu time    0.0158: real time    0.0158
    MIXING:  cpu time    0.0047: real time    0.0047
    --------------------------------------------
      LOOP:  cpu time    0.3213: real time    0.3213

 eigenvalue-minimisations  :    64
 total energy-change (2. order) : 0.4120010E-06  (-0.4084548E-05)
 number of electron       8.0000001 magnetization 
 augmentation part        0.1814181 magnetization 

 Broyden mixing:
  rms(total) = 0.72029E-03    rms(broyden)= 0.71981E-03
  rms(prec ) = 0.82777E-03
  weight for this iteration     100.00

 eigenvalues of (default mixing * dielectric matrix)
  average eigenvalue GAMMA=   1.6034
  1.6034  1.6034

 Free energy of the ion-electron system (eV)
  ---------------------------------------------------
  alpha Z        PSCENC =         0.23457282
  Ewald energy   TEWEN  =       126.89815876
  -Hartree energ DENC   =      -283.02206945
  -exchange      EXHF   =         0.00000000
  -V(xc)+E(xc)   XCENC  =        24.58829051
  PAW double counting   =       447.47912618     -448.25541535
  entropy T*S    EENTRO =        -0.00000000
  eigenvalues    EBANDS =       -88.95787802
  atomic energy  EATOM  =       197.04175453
  Solvation  Ediel_sol  =         0.00000000
  ---------------------------------------------------
  free energy    TOTEN  =       -23.99346001 eV

  energy without entropy =      -23.99346001  energy(sigma->0) =      -23.99346001


--------------------------------------------------------------------------------------------------------




--------------------------------------- Iteration      2(   4)  ---------------------------------------


    POTLOK:  cpu time    0.1299: real time    0.1299
    SETDIJ:  cpu time    0.0023: real time    0.0023
    EDDIAG:  cpu time    0.0295: real time    0.0295
  RMM-DIIS:  cpu time    0.1087: real time    0.1087
    ORTHCH:  cpu time    0.0015: real time    0.0015
       DOS:  cpu time    0.0002: real time    0.0002
    --------------------------------------------
      LOOP:  cpu time    0.2721: real time    0.2721

 eigenvalue-minimisations  :    48
 total energy-change (2. order) :-0.1226556E-06  (-0.1521058E-06)
 number of electron       8.0000001 magnetization 
 augmentation part        0.1814181 magnetization 

 Free energy of the ion-electron system (eV)
  ---------------------------------------------------
  alpha Z        PSCENC =         0.23457282
  Ewald energy   TEWEN  =       126.89815876
  -Hartree energ DENC   =      -283.01431293
  -exchange      EXHF   =         0.00000000
  -V(xc)+E(xc)   XCENC  =        24.58804725
  PAW double counting   =       447.63847558     -448.41465631
  entropy T*S    EENTRO =        -0.00000000
  eigenvalues    EBANDS =       -88.96549983
  atomic energy  EATOM  =       197.04175453
  Solvation  Ediel_sol  =         0.00000000
  ---------------------------------------------------
  free energy    TOTEN  =       -23.99346013 eV

  energy without entropy =      -23.99346013  energy(sigma->0) =      -23.99346013


--------------------------------------------------------------------------------------------------------




 average (electrostatic) potential at core
  the test charge radii are     0.5201  0.6991
  (the norm of the test charge is              1.0000)
       1 -41.3358       2 -41.3328       3 -41.5527       4 -41.4397       5 -58.0538
 
 
 
 E-fermi :  -8.1170     XC(G=0):  -0.6988     alpha+bet : -0.2040


 k-point     1 :       0.2500    0.2500    0.2500
  band No.  band energies     occupation 
      1     -16.7842      2.00000
      2      -9.3265      2.00000
      3      -9.3088      2.00000
      4      -9.0633      2.00000
      5      -0.3441      0.00000
      6       0.5281      0.00000
      7       0.6318      0.00000
      8       0.6917      0.00000

 k-point     2 :      -0.2500    0.2500    0.2500
  band No.  band energies     occupation 
      1     -16.7841      2.00000
      2      -9.3264      2.00000
      3      -9.3087      2.00000
      4      -9.0633      2.00000
      5      -0.3458      0.00000
      6       0.5273      0.00000
      7       0.6377      0.00000
      8       0.6933      0.00000

 k-point     3 :       0.2500   -0.2500    0.2500
  band No.  band energies     occupation 
      1     -16.7842      2.00000
      2      -9.3265      2.00000
      3      -9.3088      2.00000
      4      -9.0633      2.00000
      5      -0.3413      0.00000
      6       0.5201      0.00000
      7       0.6262      0.00000
      8       0.6808      0.00000

 k-point     4 :      -0.2500   -0.2500    0.2500
  band No.  band energies     occupation 
      1     -16.7842      2.00000
      2      -9.3265      2.00000
      3      -9.3089      2.00000
      4      -9.0634      2.00000
      5      -0.3418      0.00000
      6       0.5248      0.00000
      7       0.6333      0.00000
      8       0.6764      0.00000


--------------------------------------------------------------------------------------------------------


 soft charge-density along one line, spin component           1
         0         1         2         3         4         5         6         7         8         9
 total charge-density along one line
 
 pseudopotential strength for first ion, spin component:           1
 -2.340  -4.031  -0.001  -0.001   0.001
 -4.031  -6.860  -0.003  -0.004   0.002
 -0.001  -0.003  -0.339   0.002  -0.001
 -0.001  -0.004   0.002  -0.337  -0.001
  0.001   0.002  -0.001  -0.001  -0.340
 total augmentation occupancy for first ion, spin component:           1
  3.446  -0.623   0.214   0.312  -0.134
 -0.623   0.126  -0.040  -0.058   0.025
  0.214  -0.040   0.019   0.016  -0.007
  0.312  -0.058   0.016   0.031  -0.010
 -0.134   0.025  -0.007  -0.010   0.012


------------------------ aborting loop because EDIFF is reached ----------------------------------------


    CHARGE:  cpu time    0.0154: real time    0.0154
    FORLOC:  cpu time    0.0134: real time    0.0134
    FORNL :  cpu time    0.0212: real time    0.0212
    STRESS:  cpu time    0.1590: real time    0.1590
    FORCOR:  cpu time    0.1295: real time    0.1295
    FORHAR:  cpu time    0.0415: real time    0.0415
    MIXING:  cpu time    0.0049: real time    0.0049
    OFIELD:  cpu time    0.0000: real time    0.0000

  FORCE on cell =-STRESS in cart. coord.  units (eV):
  Direction    XX          YY          ZZ          XY          YZ          ZX
  --------------------------------------------------------------------------------------
  Alpha Z     0.23457     0.23457     0.23457
  Ewald      41.72719    43.13362    42.03732     1.84437     0.59339    -0.41311
  Hartree    93.01829    97.17991    92.81611     0.17783     0.48073    -0.25368
  E(xc)     -27.03251   -27.06937   -27.03131     0.00558     0.00516    -0.00304
  Local    -193.59671  -199.58189  -193.53214    -1.48323    -1.12409     0.66410
  n-local   -15.49979   -15.62944   -15.52884    -0.05270     0.03072    -0.01049
  augment     0.12272     0.12347     0.12139    -0.00472     0.00084    -0.00020
  Kinetic    99.50755   101.43567    99.52441    -0.20429    -0.27679     0.14513
  Fock        0.00000     0.00000     0.00000     0.00000     0.00000     0.00000
  -------------------------------------------------------------------------------------
  Total      -1.51869    -0.17345    -1.35849     0.28285    -0.29004     0.12871
  in kB      -2.35610    -0.26909    -2.10756     0.43882    -0.44997     0.19969
  external pressure =       -1.58 kB  Pullay stress =        0.00 kB

  kinetic pressure (ideal gas correction) =      0.00 kB
  total pressure  =     -1.58 kB
  Total+kin.    -2.352      -0.268      -2.105       0.438      -0.449       0.199

 VOLUME and BASIS-vectors are now :
 -----------------------------------------------------------------------------
  energy-cutoff  :      400.00
  volume of cell :     1032.73
      direct lattice vectors                 reciprocal lattice vectors
    10.271496086  0.000000000  0.000000000     0.097356801  0.000525322  0.000647849
    -0.052719056  9.770313977  0.000000000     0.000000000  0.102350856 -0.001999300
    -0.069562952  0.201016485 10.290708701     0.000000000  0.000000000  0.097175037

  length of vectors
    10.271496086  9.770456208 10.292906888     0.097360374  0.102370381  0.097175037


 FORCES acting on ions
    electron-ion (+dipol)            ewald-force                    non-local-force                 convergence-correction
 -----------------------------------------------------------------------------------------------
   -.170E+02 0.277E+02 0.399E+02   0.184E+02 -.301E+02 -.432E+02   -.172E+01 0.272E+01 0.401E+01   -.207E-03 -.215E-03 -.131E-03
   0.510E+02 -.569E+01 0.316E+01   -.552E+02 0.621E+01 -.345E+01   0.508E+01 -.563E+00 0.303E+00   -.231E-03 -.249E-03 -.120E-03
   -.247E+02 -.468E+02 0.154E+01   0.272E+02 0.520E+02 -.174E+01   -.266E+01 -.493E+01 0.151E+00   -.340E-03 -.590E-03 -.855E-04
   -.120E+02 0.223E+02 -.456E+02   0.132E+02 -.247E+02 0.499E+02   -.125E+01 0.224E+01 -.470E+01   -.223E-03 -.140E-03 -.203E-03
   0.319E+01 0.302E+01 0.129E+01   -.360E+01 -.344E+01 -.149E+01   0.354E-01 -.496E-01 -.865E-01   -.985E-04 -.138E-03 -.112E-03
 -----------------------------------------------------------------------------------------------
[...]
      5.60772      5.63405      4.54955        -0.181026     -0.177564     -0.001445
      5.35894      4.17052      5.52791         0.050951     -0.183364      0.182733
      5.10598      4.64915      4.58240         0.664971      0.684383      0.359571
 -----------------------------------------------------------------------------------
    total drift:                                0.000061      0.000535     -0.000101


--------------------------------------------------------------------------------------------------------



  FREE ENERGIE OF THE ION-ELECTRON SYSTEM (eV)
  ---------------------------------------------------
  free  energy   TOTEN  =       -24.01096154 eV

  energy  without entropy=      -24.01096154  energy(sigma->0) =      -24.01096154
 
 d Force =-0.7521396E-02[-0.931E-02,-0.573E-02]  d Energy =-0.7509997E-02-0.114E-04
 d Force =-0.8191116E+00[-0.823E+00,-0.815E+00]  d Ewald  =-0.8191019E+00-0.969E-05


--------------------------------------------------------------------------------------------------------


    POTLOK:  cpu time    0.1247: real time    0.1247


--------------------------------------------------------------------------------------------------------


 stress matrix after NEB project (eV)
      0.38378     -0.41197     -0.06333
     -0.41197     -0.20002      0.18705
     -0.06333      0.18705      0.18160
  FORCES: max atom, RMS     1.019734    0.663743
  FORCE total and by dimension    1.484174    0.737480
  Stress total and by dimension    0.798563    0.411970
           RANDOM_SEED =         581384177               30                0
   IONSTEP:  cpu time    0.0002: real time    0.0002

  ENERGY OF THE ELECTRON-ION-THERMOSTAT SYSTEM (eV)
  ---------------------------------------------------
% ion-electron   TOTEN  =       -24.010962  see above
  kinetic energy EKIN   =         0.022475
  kin. lattice  EKIN_LAT=         0.000000  (temperature   43.47 K)
  nose potential ES     =         0.000000
  nose kinetic   EPS    =         0.000000
  ---------------------------------------------------
  total energy   ETOTAL =       -23.988487 eV

  maximum distance moved by ions :      0.56E-03

    WAVPRE:  cpu time    0.0446: real time    0.0446
    FEWALD:  cpu time    0.0007: real time    0.0007
    ORTHCH:  cpu time    0.0086: real time    0.0086
 Prediction of Wavefunctions ALPHA= 2.218 BETA=-1.258
     LOOP+:  cpu time    1.7191: real time    1.7193


--------------------------------------- Iteration     10(   1)  ---------------------------------------


    POTLOK:  cpu time    0.1252: real time    0.1252
    SETDIJ:  cpu time    0.0023: real time    0.0023
     EDDAV:  cpu time    0.1332: real time    0.1332
       DOS:  cpu time    0.0003: real time    0.0003
    CHARGE:  cpu time    0.0152: real time    0.0152
    MIXING:  cpu time    0.0044: real time    0.0044
    --------------------------------------------
      LOOP:  cpu time    0.2807: real time    0.2807

 eigenvalue-minimisations  :    64
 total energy-change (2. order) : 0.7330345E-02  (-0.6429656E-04)
 number of electron       8.0000003 magnetization 
 augmentation part        0.1888965 magnetization 

 Broyden mixing:
  rms(total) = 0.20364E-03    rms(broyden)= 0.20223E-03
  rms(prec ) = 0.22271E-03
  weight for this iteration     100.00

 Free energy of the ion-electron system (eV)
  ---------------------------------------------------
  alpha Z        PSCENC =         0.23457282
  Ewald energy   TEWEN  =       133.22357113
  -Hartree energ DENC   =      -288.57913364
  -exchange      EXHF   =         0.00000000
  -V(xc)+E(xc)   XCENC  =        24.88266746
  PAW double counting   =       486.12446543     -486.92291972
  entropy T*S    EENTRO =        -0.00000000
  eigenvalues    EBANDS =       -90.00860862
  atomic energy  EATOM  =       197.04175453
  Solvation  Ediel_sol  =         0.00000000
  ---------------------------------------------------
  free energy    TOTEN  =       -24.00363060 eV

  energy without entropy =      -24.00363060  energy(sigma->0) =      -24.00363060


--------------------------------------------------------------------------------------------------------




--------------------------------------- Iteration     10(   2)  ---------------------------------------


    POTLOK:  cpu time    0.1226: real time    0.1226
    SETDIJ:  cpu time    0.0022: real time    0.0022
    EDDIAG:  cpu time    0.0298: real time    0.0298
  RMM-DIIS:  cpu time    0.1369: real time    0.1369
    ORTHCH:  cpu time    0.0016: real time    0.0016
       DOS:  cpu time    0.0002: real time    0.0002
    CHARGE:  cpu time    0.0157: real time    0.0157
    MIXING:  cpu time    0.0046: real time    0.0046
    --------------------------------------------
      LOOP:  cpu time    0.3136: real time    0.3136

 eigenvalue-minimisations  :    64
 total energy-change (2. order) :-0.1920933E-05  (-0.1508630E-05)
 number of electron       8.0000003 magnetization 
 augmentation part        0.1889025 magnetization 

 Broyden mixing:
  rms(total) = 0.35448E-03    rms(broyden)= 0.35413E-03
  rms(prec ) = 0.37425E-03
  weight for this iteration     100.00

 eigenvalues of (default mixing * dielectric matrix)
  average eigenvalue GAMMA=   0.1903
  0.1903

 Free energy of the ion-electron system (eV)
  ---------------------------------------------------
  alpha Z        PSCENC =         0.23457282
  Ewald energy   TEWEN  =       133.22357113
  -Hartree energ DENC   =      -288.57910694
  -exchange      EXHF   =         0.00000000
  -V(xc)+E(xc)   XCENC  =        24.88263956
  PAW double counting   =       486.09909317     -486.89751637
  entropy T*S    EENTRO =        -0.00000000
  eigenvalues    EBANDS =       -90.00864043
  atomic energy  EATOM  =       197.04175453
  Solvation  Ediel_sol  =         0.00000000
  ---------------------------------------------------
  free energy    TOTEN  =       -24.00363253 eV

  energy without entropy =      -24.00363253  energy(sigma->0) =      -24.00363253


--------------------------------------------------------------------------------------------------------




--------------------------------------- Iteration     10(   3)  ---------------------------------------


    POTLOK:  cpu time    0.1241: real time    0.1241
    SETDIJ:  cpu time    0.0025: real time    0.0025
    EDDIAG:  cpu time    0.0306: real time    0.0306
  RMM-DIIS:  cpu time    0.1139: real time    0.1139
    ORTHCH:  cpu time    0.0016: real time    0.0016
       DOS:  cpu time    0.0002: real time    0.0002
    CHARGE:  cpu time    0.0159: real time    0.0159
    MIXING:  cpu time    0.0047: real time    0.0047
    --------------------------------------------
      LOOP:  cpu time    0.2934: real time    0.2934

 eigenvalue-minimisations  :    48
 total energy-change (2. order) : 0.1692844E-06  (-0.2521091E-07)
 number of electron       8.0000003 magnetization 
 augmentation part        0.1889020 magnetization 

 Broyden mixing:
  rms(total) = 0.33615E-03    rms(broyden)= 0.33613E-03
  rms(prec ) = 0.35552E-03
  weight for this iteration     100.00

 eigenvalues of (default mixing * dielectric matrix)
  average eigenvalue GAMMA=   1.5684
  1.5684  1.5684

 Free energy of the ion-electron system (eV)
  ---------------------------------------------------
  alpha Z        PSCENC =         0.23457282
  Ewald energy   TEWEN  =       133.22357113
  -Hartree energ DENC   =      -288.57892315
  -exchange      EXHF   =         0.00000000
  -V(xc)+E(xc)   XCENC  =        24.88263779
  PAW double counting   =       486.07692876     -486.87534991
  entropy T*S    EENTRO =        -0.00000000
  eigenvalues    EBANDS =       -90.00882433
  atomic energy  EATOM  =       197.04175453
  Solvation  Ediel_sol  =         0.00000000
  ---------------------------------------------------
  free energy    TOTEN  =       -24.00363236 eV

  energy without entropy =      -24.00363236  energy(sigma->0) =      -24.00363236


--------------------------------------------------------------------------------------------------------




--------------------------------------- Iteration     10(   4)  ---------------------------------------


    POTLOK:  cpu time    0.1231: real time    0.1232
    SETDIJ:  cpu time    0.0023: real time    0.0023
    EDDIAG:  cpu time    0.0297: real time    0.0297
  RMM-DIIS:  cpu time    0.1081: real time    0.1081
    ORTHCH:  cpu time    0.0016: real time    0.0016
       DOS:  cpu time    0.0002: real time    0.0002
    --------------------------------------------
      LOOP:  cpu time    0.2649: real time    0.2650

 eigenvalue-minimisations  :    48
 total energy-change (2. order) :-0.9732572E-06  (-0.3747131E-07)
 number of electron       8.0000003 magnetization 
 augmentation part        0.1889020 magnetization 

 Free energy of the ion-electron system (eV)
  ---------------------------------------------------
  alpha Z        PSCENC =         0.23457282
  Ewald energy   TEWEN  =       133.22357113
  -Hartree energ DENC   =      -288.57671196
  -exchange      EXHF   =         0.00000000
  -V(xc)+E(xc)   XCENC  =        24.88261717
  PAW double counting   =       485.84834916     -486.64674315
  entropy T*S    EENTRO =        -0.00000000
  eigenvalues    EBANDS =       -90.01104303
  atomic energy  EATOM  =       197.04175453
  Solvation  Ediel_sol  =         0.00000000
  ---------------------------------------------------
  free energy    TOTEN  =       -24.00363333 eV

  energy without entropy =      -24.00363333  energy(sigma->0) =      -24.00363333


--------------------------------------------------------------------------------------------------------




 average (electrostatic) potential at core
  the test charge radii are     0.5201  0.6991
  (the norm of the test charge is              1.0000)
       1 -41.6822       2 -41.7086       3 -41.3904       4 -41.5491       5 -57.8898
 
 
 
 E-fermi :  -8.2772     XC(G=0):  -0.6651     alpha+bet : -0.2040


 k-point     1 :       0.2500    0.2500    0.2500
  band No.  band energies     occupation 
      1     -16.9855      2.00000
      2      -9.4337      2.00000
      3      -9.3764      2.00000
      4      -9.2098      2.00000
      5      -0.2985      0.00000
      6       0.5588      0.00000
      7       0.6653      0.00000
      8       0.7151      0.00000

 k-point     2 :      -0.2500    0.2500    0.2500
  band No.  band energies     occupation 
      1     -16.9854      2.00000
      2      -9.4338      2.00000
      3      -9.3764      2.00000
      4      -9.2097      2.00000
      5      -0.3013      0.00000
      6       0.5669      0.00000
      7       0.6659      0.00000
      8       0.7203      0.00000

 k-point     3 :       0.2500   -0.2500    0.2500
  band No.  band energies     occupation 
      1     -16.9855      2.00000
      2      -9.4338      2.00000
      3      -9.3764      2.00000
      4      -9.2098      2.00000
      5      -0.2960      0.00000
      6       0.5531      0.00000
      7       0.6569      0.00000
      8       0.7080      0.00000

 k-point     4 :      -0.2500   -0.2500    0.2500
  band No.  band energies     occupation 
      1     -16.9855      2.00000
      2      -9.4339      2.00000
      3      -9.3765      2.00000
      4      -9.2099      2.00000
      5      -0.2957      0.00000
      6       0.5564      0.00000
      7       0.6640      0.00000
      8       0.6995      0.00000


--------------------------------------------------------------------------------------------------------


 soft charge-density along one line, spin component           1
         0         1         2         3         4         5         6         7         8         9
 total charge-density along one line
 
 pseudopotential strength for first ion, spin component:           1
 -2.342  -4.037  -0.001  -0.001   0.001
 -4.037  -6.871  -0.003  -0.005   0.002
 -0.001  -0.003  -0.336   0.002  -0.001
 -0.001  -0.005   0.002  -0.334  -0.001
  0.001   0.002  -0.001  -0.001  -0.337
 total augmentation occupancy for first ion, spin component:           1
  3.633  -0.650   0.253   0.353  -0.151
 -0.650   0.131  -0.047  -0.065   0.028
  0.253  -0.047   0.025   0.020  -0.009
  0.353  -0.065   0.020   0.039  -0.012
 -0.151   0.028  -0.009  -0.012   0.015


------------------------ aborting loop because EDIFF is reached ----------------------------------------


    CHARGE:  cpu time    0.0153: real time    0.0153
    FORLOC:  cpu time    0.0133: real time    0.0133
    FORNL :  cpu time    0.0217: real time    0.0217
    STRESS:  cpu time    0.1579: real time    0.1579
    FORCOR:  cpu time    0.1290: real time    0.1290
    FORHAR:  cpu time    0.0420: real time    0.0420
    MIXING:  cpu time    0.0046: real time    0.0046
    OFIELD:  cpu time    0.0000: real time    0.0000

  FORCE on cell =-STRESS in cart. coord.  units (eV):
  Direction    XX          YY          ZZ          XY          YZ          ZX
  --------------------------------------------------------------------------------------
  Alpha Z     0.23457     0.23457     0.23457
  Ewald      43.57064    46.77328    42.87962    -0.66236     0.80866    -0.34175
  Hartree    94.24255   100.28049    94.05638     0.08232     0.19566    -0.09877
  E(xc)     -27.36227   -27.36606   -27.36115     0.00354    -0.00043    -0.00002
  Local    -195.95151  -206.28400  -195.29342     0.23057    -0.75928     0.34617
  n-local   -16.25142   -16.16831   -16.23123     0.04327    -0.02424     0.00910
  augment     0.10453     0.11559     0.10715     0.00388    -0.00260     0.00098
  Kinetic   102.01026   102.21327   101.96426    -0.16726     0.02191    -0.00042
  Fock        0.00000     0.00000     0.00000     0.00000     0.00000     0.00000
  -------------------------------------------------------------------------------------
  Total       0.59736    -0.20117     0.35618    -0.46604     0.23968    -0.08472
  in kB       0.92674    -0.31210     0.55258    -0.72302     0.37184    -0.13144
  external pressure =        0.39 kB  Pullay stress =        0.00 kB

  kinetic pressure (ideal gas correction) =      0.02 kB
  total pressure  =      0.41 kB
  Total+kin.     0.952      -0.303       0.577      -0.723       0.374      -0.138

 VOLUME and BASIS-vectors are now :
 -----------------------------------------------------------------------------
  energy-cutoff  :      400.00
  volume of cell :     1032.73
      direct lattice vectors                 reciprocal lattice vectors
    10.271496086  0.000000000  0.000000000     0.097356801  0.000525322  0.000647849
    -0.052719056  9.770313977  0.000000000     0.000000000  0.102350856 -0.001999300
    -0.069562952  0.201016485 10.290708701     0.000000000  0.000000000  0.097175037

  length of vectors
    10.271496086  9.770456208 10.292906888     0.097360374  0.102370381  0.097175037


 FORCES acting on ions
    electron-ion (+dipol)            ewald-force                    non-local-force                 convergence-correction
 -----------------------------------------------------------------------------------------------
   -.178E+02 0.299E+02 0.416E+02   0.199E+02 -.336E+02 -.467E+02   -.193E+01 0.322E+01 0.450E+01   0.850E-04 -.203E-03 -.268E-03
   0.538E+02 -.647E+01 0.345E+01   -.606E+02 0.731E+01 -.388E+01   0.585E+01 -.710E+00 0.371E+00   -.293E-03 0.246E-04 -.347E-04
   -.237E+02 -.469E+02 0.161E+01   0.260E+02 0.514E+02 -.176E+01   -.242E+01 -.475E+01 0.159E+00   0.150E-03 0.295E-03 -.182E-04
   -.124E+02 0.237E+02 -.464E+02   0.137E+02 -.264E+02 0.515E+02   -.131E+01 0.248E+01 -.488E+01   0.625E-04 -.165E-03 0.295E-03
   -.588E+00 -.850E+00 -.616E+00   0.909E+00 0.119E+01 0.831E+00   0.436E+00 0.442E+00 0.214E+00   -.253E-03 -.618E-05 -.796E-04
 -----------------------------------------------------------------------------------------------
   -.632E+00 -.675E+00 -.368E+00   0.178E-14 0.355E-14 0.000E+00   0.632E+00 0.676E+00 0.368E+00   -.248E-03 -.544E-04 -.106E-03
 
 
 POSITION                                       TOTAL-FORCE (eV/Angst)
 -----------------------------------------------------------------------------------
      5.45852      4.05783      3.76009         0.262121     -0.507117     -0.621492
      4.04614      4.77774      4.51472        -0.916052      0.128589     -0.063934
      5.60496      5.63657      4.54892        -0.169014     -0.220703      0.004273
      5.35814      4.16786      5.52453         0.066202     -0.184225      0.252547
      5.10607      4.64917      4.58234         0.756747      0.783969      0.428520
 -----------------------------------------------------------------------------------
    total drift:                                0.000005      0.000513     -0.000085


--------------------------------------------------------------------------------------------------------



  FREE ENERGIE OF THE ION-ELECTRON SYSTEM (eV)
  ---------------------------------------------------
  free  energy   TOTEN  =       -24.00363333 eV

  energy  without entropy=      -24.00363333  energy(sigma->0) =      -24.00363333
 
 d Force =-0.7332954E-02[-0.837E-02,-0.630E-02]  d Energy =-0.7328212E-02-0.474E-05
 d Force =-0.6135044E+00[-0.615E+00,-0.612E+00]  d Ewald  =-0.6135023E+00-0.204E-05


--------------------------------------------------------------------------------------------------------


    POTLOK:  cpu time    0.1264: real time    0.1264


--------------------------------------------------------------------------------------------------------


 stress matrix after NEB project (eV)
      0.59736     -0.46604     -0.08472
     -0.46604     -0.20117      0.23968
     -0.08472      0.23968      0.35618
  FORCES: max atom, RMS     1.170856    0.790215
  FORCE total and by dimension    1.766975    0.916052
  Stress total and by dimension    1.042985    0.597357
           RANDOM_SEED =         581384177               30                0
   IONSTEP:  cpu time    0.0002: real time    0.0002

  ENERGY OF THE ELECTRON-ION-THERMOSTAT SYSTEM (eV)
  ---------------------------------------------------
% ion-electron   TOTEN  =       -24.003633  see above
  kinetic energy EKIN   =         0.015328
  kin. lattice  EKIN_LAT=         0.000000  (temperature   29.65 K)
  nose potential ES     =         0.000000
  nose kinetic   EPS    =         0.000000
  ---------------------------------------------------
  total energy   ETOTAL =       -23.988306 eV

  maximum distance moved by ions :      0.44E-03


 mean value of Nose-termostat <S>:     1.000 mean value of <T> :    40.394
 mean temperature <T/S>/<1/S>  :    40.394

    WAVPRE:  cpu time    0.0479: real time    0.0479
    FEWALD:  cpu time    0.0007: real time    0.0007
    ORTHCH:  cpu time    0.0087: real time    0.0087
 Prediction of Wavefunctions ALPHA= 2.134 BETA=-1.162
    POTLOK:  cpu time    0.1306: real time    0.1306
    EDDIAG:  cpu time    0.0297: real time    0.0297
     LOOP+:  cpu time    1.8850: real time    1.8852
    4ORBIT:  cpu time    0.0000: real time    0.0017

 total amount of memory used by VASP MPI-rank0    54827. kBytes
=======================================================================

   base      :      30000. kBytes
   nonl-proj :       2791. kBytes
   fftplans  :       7848. kBytes
   grid      :      12367. kBytes
   one-center:          6. kBytes
   wavefun   :       1815. kBytes
 
  
  
 General timing and accounting informations for this job:
 ========================================================
  
                  Total CPU time used (sec):       25.362
                            User time (sec):       22.909
                          System time (sec):        2.454
                         Elapsed time (sec):       25.806
  
                   Maximum memory used (kb):      178128.
                   Average memory used (kb):           0.
  
                          Minor page faults:       253277
                          Major page faults:           94
                 Voluntary context switches:          510
