    5    5   10    1
  0.2041675E+03  0.1015450E-08  0.1009290E-08  0.9966528E-09  0.5000000E-15
  1.000000000000000E-004
  CAR 
 unknown system                          
      8      4      8
 
  0.2500000E+00  0.2500000E+00  0.2500000E+00  0.2500000E+00
    1      -16.949436   1.000000
    2       -9.398414   1.000000
    3       -9.335123   1.000000
    4       -9.228694   1.000000
    5       -0.302436   0.000000
    6        0.564398   0.000000
    7        0.667592   0.000000
    8        0.701496   0.000000
 
 -0.2500000E+00  0.2500000E+00  0.2500000E+00  0.2500000E+00
    1      -16.949422   1.000000
    2       -9.398333   1.000000
    3       -9.335044   1.000000
    4       -9.228663   1.000000
    5       -0.304258   0.000000
    6        0.561806   0.000000
    7        0.674983   0.000000
    8        0.704496   0.000000
 
  0.2500000E+00 -0.2500000E+00  0.2500000E+00  0.2500000E+00
    1      -16.949450   1.000000
    2       -9.398315   1.000000
    3       -9.335089   1.000000
    4       -9.228681   1.000000
    5       -0.297792   0.000000
    6        0.546498   0.000000
    7        0.663942   0.000000
    8        0.688335   0.000000
 
 -0.2500000E+00 -0.2500000E+00  0.2500000E+00  0.2500000E+00
    1      -16.949405   1.000000
    2       -9.398238   1.000000
    3       -9.334994   1.000000
    4       -9.228685   1.000000
    5       -0.307292   0.000000
    6        0.576554   0.000000
    7        0.682405   0.000000
    8        0.707315   0.000000
