       N       E                     dE             d eps       ncg     rms          rms(c)
DAV:   1     0.105579121650E+02    0.10558E+02   -0.20944E+03    96   0.425E+02
DAV:   2    -0.237366554554E+02   -0.34295E+02   -0.34295E+02    64   0.111E+02
DAV:   3    -0.272748072505E+02   -0.35382E+01   -0.35382E+01    64   0.419E+01
DAV:   4    -0.274144788608E+02   -0.13967E+00   -0.13967E+00   128   0.870E+00
DAV:   5    -0.274145215879E+02   -0.42727E-04   -0.42727E-04    88   0.170E-01    0.855E+00
RMM:   6    -0.246253142584E+02    0.27892E+01   -0.51497E+00    64   0.138E+01    0.422E+00
RMM:   7    -0.241520354559E+02    0.47328E+00   -0.11288E+00    64   0.612E+00    0.225E+00
RMM:   8    -0.240072881453E+02    0.14475E+00   -0.16236E-01    64   0.286E+00    0.228E-01
RMM:   9    -0.240017133360E+02    0.55748E-02   -0.10853E-02    64   0.689E-01    0.194E-01
RMM:  10    -0.239954268711E+02    0.62865E-02   -0.24626E-02    64   0.852E-01    0.274E-01
RMM:  11    -0.239962459007E+02   -0.81903E-03   -0.87558E-03    64   0.578E-01    0.907E-02
RMM:  12    -0.240055389754E+02   -0.92931E-02   -0.30397E-03    64   0.338E-01    0.118E-01
RMM:  13    -0.240061508643E+02   -0.61189E-03   -0.10310E-03    64   0.176E-01    0.431E-02
RMM:  14    -0.240089672672E+02   -0.28164E-02   -0.11669E-03    64   0.209E-01    0.267E-02
RMM:  15    -0.240092296766E+02   -0.26241E-03   -0.37515E-05    64   0.378E-02    0.160E-02
RMM:  16    -0.240094329752E+02   -0.20330E-03   -0.83860E-05    64   0.528E-02    0.464E-03
RMM:  17    -0.240094766325E+02   -0.43657E-04   -0.19720E-05    64   0.251E-02    0.528E-03
RMM:  18    -0.240094863181E+02   -0.96856E-05   -0.50888E-06    64   0.125E-02    0.707E-04
RMM:  19    -0.240094905018E+02   -0.41836E-05   -0.55283E-07    48   0.521E-03    0.977E-04
RMM:  20    -0.240094914771E+02   -0.97529E-06   -0.13297E-07    48   0.261E-03
    1 T=     1. E= -.24009164E+02 F= -.24009491E+02 E0= -.24009491E+02  EK= 0.32789E-03 SP= 0.00E+00 SK= 0.00E+00
       N       E                     dE             d eps       ncg     rms          rms(c)
DAV:   1    -0.240120500395E+02   -0.25595E-02   -0.27917E-03    96   0.506E-01    0.247E-02
RMM:   2    -0.240120416466E+02    0.83929E-05   -0.81961E-05    64   0.716E-02    0.136E-02
RMM:   3    -0.240120410139E+02    0.63268E-06   -0.18162E-05    64   0.298E-02    0.542E-03
RMM:   4    -0.240120410814E+02   -0.67472E-07   -0.74712E-07    48   0.757E-03
    2 T=     5. E= -.24009211E+02 F= -.24012041E+02 E0= -.24012041E+02  EK= 0.28300E-02 SP= 0.00E+00 SK= 0.00E+00
       N       E                     dE             d eps       ncg     rms          rms(c)
DAV:   1    -0.240163921852E+02   -0.43512E-02   -0.22145E-03    64   0.473E-01    0.783E-03
RMM:   2    -0.240164046376E+02   -0.12452E-04   -0.12782E-04    64   0.951E-02    0.300E-03
RMM:   3    -0.240164057265E+02   -0.10889E-05   -0.47450E-06    52   0.191E-02    0.248E-03
RMM:   4    -0.240164060267E+02   -0.30014E-06   -0.10485E-06    48   0.905E-03
    3 T=    14. E= -.24009292E+02 F= -.24016406E+02 E0= -.24016406E+02  EK= 0.71143E-02 SP= 0.00E+00 SK= 0.00E+00
       N       E                     dE             d eps       ncg     rms          rms(c)
DAV:   1    -0.240213143979E+02   -0.49087E-02   -0.69768E-04    64   0.230E-01    0.728E-03
RMM:   2    -0.240213154232E+02   -0.10253E-05   -0.25411E-05    64   0.430E-02    0.554E-03
RMM:   3    -0.240213155343E+02   -0.11112E-06   -0.53564E-06    60   0.148E-02    0.189E-03
RMM:   4    -0.240213158677E+02   -0.33339E-06   -0.21686E-07    48   0.422E-03
    4 T=    23. E= -.24009386E+02 F= -.24021316E+02 E0= -.24021316E+02  EK= 0.11930E-01 SP= 0.00E+00 SK= 0.00E+00
       N       E                     dE             d eps       ncg     rms          rms(c)
DAV:   1    -0.240253145142E+02   -0.39990E-02   -0.98229E-04    72   0.269E-01    0.487E-03
RMM:   2    -0.240253170002E+02   -0.24860E-05   -0.77070E-06    63   0.229E-02    0.307E-03
RMM:   3    -0.240253193624E+02   -0.23622E-05   -0.40507E-07    48   0.531E-03    0.122E-03
RMM:   4    -0.240253214261E+02   -0.20637E-05   -0.20343E-07    48   0.292E-03    0.298E-04
RMM:   5    -0.240253230194E+02   -0.15933E-05   -0.61618E-08    40   0.194E-03    0.175E-04
RMM:   6    -0.240253253041E+02   -0.22847E-05   -0.31219E-07    45   0.278E-03    0.173E-04
RMM:   7    -0.240253256236E+02   -0.31957E-06    0.00000E+00    32   0.142E-03
    5 T=    31. E= -.24009464E+02 F= -.24025326E+02 E0= -.24025326E+02  EK= 0.15861E-01 SP= 0.00E+00 SK= 0.00E+00
       N       E                     dE             d eps       ncg     rms          rms(c)
DAV:   1    -0.240272487805E+02   -0.19235E-02   -0.11960E-03    88   0.293E-01    0.433E-03
RMM:   2    -0.240272503403E+02   -0.15597E-05   -0.64758E-06    63   0.200E-02    0.209E-03
RMM:   3    -0.240272519241E+02   -0.15838E-05   -0.76668E-07    48   0.693E-03    0.864E-04
RMM:   4    -0.240272531845E+02   -0.12604E-05   -0.16402E-07    48   0.355E-03    0.349E-04
RMM:   5    -0.240272543124E+02   -0.11279E-05   -0.67081E-08    46   0.195E-03    0.154E-04
RMM:   6    -0.240272547883E+02   -0.47591E-06   -0.13822E-08    34   0.126E-03
    6 T=    34. E= -.24009502E+02 F= -.24027255E+02 E0= -.24027255E+02  EK= 0.17753E-01 SP= 0.00E+00 SK= 0.00E+00
       N       E                     dE             d eps       ncg     rms          rms(c)
DAV:   1    -0.240265572774E+02    0.69704E-03   -0.11478E-03    64   0.295E-01    0.265E-03
RMM:   2    -0.240265590582E+02   -0.17808E-05   -0.71729E-06    64   0.267E-02    0.158E-03
RMM:   3    -0.240265602985E+02   -0.12403E-05   -0.39361E-07    48   0.528E-03    0.669E-04
RMM:   4    -0.240265615034E+02   -0.12049E-05   -0.20439E-07    48   0.356E-03    0.324E-04
RMM:   5    -0.240265627048E+02   -0.12014E-05   -0.29521E-08    40   0.175E-03    0.189E-04
RMM:   6    -0.240265636863E+02   -0.98149E-06   -0.15315E-08    36   0.144E-03
    7 T=    33. E= -.24009485E+02 F= -.24026564E+02 E0= -.24026564E+02  EK= 0.17078E-01 SP= 0.00E+00 SK= 0.00E+00
       N       E                     dE             d eps       ncg     rms          rms(c)
DAV:   1    -0.240235587692E+02    0.30039E-02   -0.97075E-04    72   0.274E-01    0.206E-03
RMM:   2    -0.240235594173E+02   -0.64811E-06   -0.59034E-06    64   0.286E-02    0.118E-03
RMM:   3    -0.240235595644E+02   -0.14705E-06   -0.15592E-07    48   0.343E-03    0.808E-04
RMM:   4    -0.240235598420E+02   -0.27763E-06   -0.21444E-08    39   0.201E-03
    8 T=    27. E= -.24009419E+02 F= -.24023560E+02 E0= -.24023560E+02  EK= 0.14141E-01 SP= 0.00E+00 SK= 0.00E+00
       N       E                     dE             d eps       ncg     rms          rms(c)
DAV:   1    -0.240193311590E+02    0.42284E-02   -0.66217E-04    72   0.235E-01    0.317E-03
RMM:   2    -0.240193315749E+02   -0.41590E-06   -0.72168E-06    64   0.331E-02    0.210E-03
RMM:   3    -0.240193315419E+02    0.32958E-07   -0.38056E-07    48   0.476E-03    0.106E-03
RMM:   4    -0.240193316122E+02   -0.70295E-07   -0.32309E-07    48   0.426E-03
    9 T=    19. E= -.24009323E+02 F= -.24019332E+02 E0= -.24019332E+02  EK= 0.10009E-01 SP= 0.00E+00 SK= 0.00E+00
       N       E                     dE             d eps       ncg     rms          rms(c)
DAV:   1    -0.240154109194E+02    0.39206E-02   -0.34223E-04    80   0.180E-01    0.124E-03
RMM:   2    -0.240154115692E+02   -0.64976E-06   -0.47396E-06    64   0.281E-02    0.189E-03
RMM:   3    -0.240154115734E+02   -0.42236E-08   -0.84496E-08    45   0.256E-03    0.168E-03
RMM:   4    -0.240154120775E+02   -0.50414E-06   -0.17824E-08    39   0.186E-03
   10 T=    12. E= -.24009232E+02 F= -.24015412E+02 E0= -.24015412E+02  EK= 0.61802E-02 SP= 0.00E+00 SK= 0.00E+00
