unknown system                          
           1
    10.154503    0.000000    0.000000
     0.196829   10.090981    0.000000
    -0.284676    0.030319    9.962415
   H    C 
   4   1
Direct configuration=     1
   0.53760221  0.40656427  0.36062161
   0.39388126  0.47979477  0.43831266
   0.55248962  0.56547403  0.44290994
   0.52805536  0.41605133  0.53871391
   0.50336900  0.46737786  0.44520357
Direct configuration=     2
   0.53757468  0.40659654  0.36065584
   0.39402558  0.47981060  0.43829293
   0.55240093  0.56534337  0.44292110
   0.52810196  0.41602086  0.53879643
   0.50336278  0.46738727  0.44519456
Direct configuration=     3
   0.53752098  0.40665933  0.36072141
   0.39430431  0.47984199  0.43825311
   0.55222861  0.56509205  0.44294338
   0.52819341  0.41596355  0.53895403
   0.50335078  0.46740512  0.44517744
Direct configuration=     4
   0.53744410  0.40674809  0.36081296
   0.39469727  0.47988994  0.43819323
   0.55198343  0.56473948  0.44297617
   0.52832499  0.41588670  0.53917214
   0.50333392  0.46742949  0.44515391
Direct configuration=     5
   0.53734834  0.40685627  0.36092265
   0.39517542  0.47995588  0.43811334
   0.55168097  0.56431366  0.44301862
   0.52849025  0.41579999  0.53943134
   0.50331351  0.46745767  0.44512632
Direct configuration=     6
   0.53723902  0.40697590  0.36104101
   0.39570256  0.48004150  0.43801359
   0.55134073  0.56384948  0.44306962
   0.52868137  0.41571466  0.53970880
   0.50329114  0.46748633  0.44509742
Direct configuration=     7
   0.53712210  0.40709819  0.36115754
   0.39623779  0.48014859  0.43789425
   0.55098488  0.56338630  0.44312787
   0.52888981  0.41564235  0.53998068
   0.50326858  0.46751181  0.44507017
Direct configuration=     8
   0.53700385  0.40721416  0.36126140
   0.39673844  0.48027878  0.43775581
   0.55063668  0.56296517  0.44319192
   0.52910689  0.41559393  0.54022423
   0.50324766  0.46753041  0.44504744
Direct configuration=     9
   0.53689035  0.40731547  0.36134246
   0.39716377  0.48043329  0.43759911
   0.55031858  0.56262501  0.44326020
   0.52932429  0.41557864  0.54041960
   0.50323008  0.46753871  0.44503179
Direct configuration=    10
   0.53678712  0.40739498  0.36139188
   0.39747869  0.48061257  0.43742545
   0.55005022  0.56239898  0.44333108
   0.52953459  0.41560317  0.54055146
   0.50321729  0.46753394  0.44502525
