   5   5   0   0
  0.2049122E+03  0.1005421E-08  0.1029495E-08  0.9906798E-09  0.5000000E-15
  1.000000000000000E-004
  CAR 
 unknown system                          
      2.70866894    -18.92100901  301     -8.32232599      1.00000000
    -18.921  0.0000E+00  0.0000E+00
    -18.849  0.0000E+00  0.0000E+00
    -18.777  0.0000E+00  0.0000E+00
    -18.705  0.0000E+00  0.0000E+00
    -18.633  0.0000E+00  0.0000E+00
    -18.561  0.0000E+00  0.0000E+00
    -18.488  0.0000E+00  0.0000E+00
    -18.416  0.0000E+00  0.0000E+00
    -18.344  0.0000E+00  0.0000E+00
    -18.272  0.0000E+00  0.0000E+00
    -18.200  0.0000E+00  0.0000E+00
    -18.128  0.0000E+00  0.0000E+00
    -18.056  0.1296E-13  0.9326E-15
    -17.984  0.7051E-12  0.5167E-13
    -17.912  0.3038E-10  0.2238E-11
    -17.840  0.1013E-08  0.7516E-10
    -17.767  0.2618E-07  0.1959E-08
    -17.695  0.5239E-06  0.3966E-07
    -17.623  0.8124E-05  0.6243E-06
    -17.551  0.9763E-04  0.7650E-05
    -17.479  0.9095E-03  0.7309E-04
    -17.407  0.6569E-02  0.5458E-03
    -17.335  0.3680E-01  0.3194E-02
    -17.263  0.1599E+00  0.1470E-01
    -17.191  0.5391E+00  0.5349E-01
    -17.119  0.1410E+01  0.1550E+00
    -17.046  0.2863E+01  0.3610E+00
    -16.974  0.4512E+01  0.6856E+00
    -16.902  0.5519E+01  0.1083E+01
    -16.830  0.5241E+01  0.1460E+01
    -16.758  0.3863E+01  0.1738E+01
    -16.686  0.2211E+01  0.1897E+01
    -16.614  0.9819E+00  0.1968E+01
    -16.542  0.3385E+00  0.1992E+01
    -16.470  0.9057E-01  0.1998E+01
    -16.398  0.1880E-01  0.2000E+01
    -16.325  0.3029E-02  0.2000E+01
    -16.253  0.3785E-03  0.2000E+01
    -16.181  0.3668E-04  0.2000E+01
    -16.109  0.2756E-05  0.2000E+01
    -16.037  0.1606E-06  0.2000E+01
    -15.965  0.7252E-08  0.2000E+01
    -15.893  0.2538E-09  0.2000E+01
    -15.821  0.6883E-11  0.2000E+01
    -15.749  0.1454E-12  0.2000E+01
    -15.677  0.1545E-14  0.2000E+01
    -15.604  0.0000E+00  0.2000E+01
    -15.532  0.0000E+00  0.2000E+01
    -15.460  0.0000E+00  0.2000E+01
    -15.388  0.0000E+00  0.2000E+01
    -15.316  0.0000E+00  0.2000E+01
    -15.244  0.0000E+00  0.2000E+01
    -15.172  0.0000E+00  0.2000E+01
    -15.100  0.0000E+00  0.2000E+01
    -15.028  0.0000E+00  0.2000E+01
    -14.956  0.0000E+00  0.2000E+01
    -14.883  0.0000E+00  0.2000E+01
    -14.811  0.0000E+00  0.2000E+01
    -14.739  0.0000E+00  0.2000E+01
    -14.667  0.0000E+00  0.2000E+01
    -14.595  0.0000E+00  0.2000E+01
    -14.523  0.0000E+00  0.2000E+01
    -14.451  0.0000E+00  0.2000E+01
    -14.379  0.0000E+00  0.2000E+01
    -14.307  0.0000E+00  0.2000E+01
    -14.235  0.0000E+00  0.2000E+01
    -14.162  0.0000E+00  0.2000E+01
    -14.090  0.0000E+00  0.2000E+01
    -14.018  0.0000E+00  0.2000E+01
    -13.946  0.0000E+00  0.2000E+01
    -13.874  0.0000E+00  0.2000E+01
    -13.802  0.0000E+00  0.2000E+01
    -13.730  0.0000E+00  0.2000E+01
    -13.658  0.0000E+00  0.2000E+01
    -13.586  0.0000E+00  0.2000E+01
    -13.514  0.0000E+00  0.2000E+01
    -13.441  0.0000E+00  0.2000E+01
    -13.369  0.0000E+00  0.2000E+01
    -13.297  0.0000E+00  0.2000E+01
    -13.225  0.0000E+00  0.2000E+01
    -13.153  0.0000E+00  0.2000E+01
    -13.081  0.0000E+00  0.2000E+01
    -13.009  0.0000E+00  0.2000E+01
    -12.937  0.0000E+00  0.2000E+01
    -12.865  0.0000E+00  0.2000E+01
    -12.793  0.0000E+00  0.2000E+01
    -12.721  0.0000E+00  0.2000E+01
    -12.648  0.0000E+00  0.2000E+01
    -12.576  0.0000E+00  0.2000E+01
    -12.504  0.0000E+00  0.2000E+01
    -12.432  0.0000E+00  0.2000E+01
    -12.360  0.0000E+00  0.2000E+01
    -12.288  0.0000E+00  0.2000E+01
    -12.216  0.0000E+00  0.2000E+01
    -12.144  0.0000E+00  0.2000E+01
    -12.072  0.0000E+00  0.2000E+01
    -12.000  0.0000E+00  0.2000E+01
    -11.927  0.0000E+00  0.2000E+01
    -11.855  0.0000E+00  0.2000E+01
    -11.783  0.0000E+00  0.2000E+01
    -11.711  0.0000E+00  0.2000E+01
    -11.639  0.0000E+00  0.2000E+01
    -11.567  0.0000E+00  0.2000E+01
    -11.495  0.0000E+00  0.2000E+01
    -11.423  0.0000E+00  0.2000E+01
    -11.351  0.0000E+00  0.2000E+01
    -11.279  0.0000E+00  0.2000E+01
    -11.206  0.0000E+00  0.2000E+01
    -11.134  0.0000E+00  0.2000E+01
    -11.062  0.0000E+00  0.2000E+01
    -10.990  0.0000E+00  0.2000E+01
    -10.918  0.0000E+00  0.2000E+01
    -10.846  0.0000E+00  0.2000E+01
    -10.774  0.0000E+00  0.2000E+01
    -10.702  0.0000E+00  0.2000E+01
    -10.630  0.7727E-15  0.2000E+01
    -10.558  0.4670E-13  0.2000E+01
    -10.485  0.2294E-11  0.2000E+01
    -10.413  0.8710E-10  0.2000E+01
    -10.341  0.2572E-08  0.2000E+01
    -10.269  0.5912E-07  0.2000E+01
    -10.197  0.1059E-05  0.2000E+01
    -10.125  0.1480E-04  0.2000E+01
    -10.053  0.1617E-03  0.2000E+01
     -9.981  0.1384E-02  0.2000E+01
     -9.909  0.9303E-02  0.2001E+01
     -9.837  0.4933E-01  0.2004E+01
     -9.764  0.2073E+00  0.2019E+01
     -9.692  0.6940E+00  0.2069E+01
     -9.620  0.1865E+01  0.2203E+01
     -9.548  0.4057E+01  0.2495E+01
     -9.476  0.7207E+01  0.3014E+01
     -9.404  0.1057E+02  0.3774E+01
     -9.332  0.1294E+02  0.4706E+01
     -9.260  0.1341E+02  0.5670E+01
     -9.188  0.1188E+02  0.6525E+01
     -9.116  0.9055E+01  0.7177E+01
     -9.043  0.5911E+01  0.7602E+01
     -8.971  0.3261E+01  0.7837E+01
     -8.899  0.1494E+01  0.7944E+01
     -8.827  0.5581E+00  0.7984E+01
     -8.755  0.1676E+00  0.7996E+01
     -8.683  0.4007E-01  0.7999E+01
     -8.611  0.7565E-02  0.8000E+01
     -8.539  0.1123E-02  0.8000E+01
     -8.467  0.1305E-03  0.8000E+01
     -8.395  0.1186E-04  0.8000E+01
     -8.322  0.8410E-06  0.8000E+01
     -8.250  0.4648E-07  0.8000E+01
     -8.178  0.1999E-08  0.8000E+01
     -8.106  0.6691E-10  0.8000E+01
     -8.034  0.1741E-11  0.8000E+01
     -7.962  0.3508E-13  0.8000E+01
     -7.890  0.0000E+00  0.8000E+01
     -7.818  0.0000E+00  0.8000E+01
     -7.746  0.0000E+00  0.8000E+01
     -7.674  0.0000E+00  0.8000E+01
     -7.601  0.0000E+00  0.8000E+01
     -7.529  0.0000E+00  0.8000E+01
     -7.457  0.0000E+00  0.8000E+01
     -7.385  0.0000E+00  0.8000E+01
     -7.313  0.0000E+00  0.8000E+01
     -7.241  0.0000E+00  0.8000E+01
     -7.169  0.0000E+00  0.8000E+01
     -7.097  0.0000E+00  0.8000E+01
     -7.025  0.0000E+00  0.8000E+01
     -6.953  0.0000E+00  0.8000E+01
     -6.880  0.0000E+00  0.8000E+01
     -6.808  0.0000E+00  0.8000E+01
     -6.736  0.0000E+00  0.8000E+01
     -6.664  0.0000E+00  0.8000E+01
     -6.592  0.0000E+00  0.8000E+01
     -6.520  0.0000E+00  0.8000E+01
     -6.448  0.0000E+00  0.8000E+01
     -6.376  0.0000E+00  0.8000E+01
     -6.304  0.0000E+00  0.8000E+01
     -6.232  0.0000E+00  0.8000E+01
     -6.159  0.0000E+00  0.8000E+01
     -6.087  0.0000E+00  0.8000E+01
     -6.015  0.0000E+00  0.8000E+01
     -5.943  0.0000E+00  0.8000E+01
     -5.871  0.0000E+00  0.8000E+01
     -5.799  0.0000E+00  0.8000E+01
     -5.727  0.0000E+00  0.8000E+01
     -5.655  0.0000E+00  0.8000E+01
     -5.583  0.0000E+00  0.8000E+01
     -5.511  0.0000E+00  0.8000E+01
     -5.439  0.0000E+00  0.8000E+01
     -5.366  0.0000E+00  0.8000E+01
     -5.294  0.0000E+00  0.8000E+01
     -5.222  0.0000E+00  0.8000E+01
     -5.150  0.0000E+00  0.8000E+01
     -5.078  0.0000E+00  0.8000E+01
     -5.006  0.0000E+00  0.8000E+01
     -4.934  0.0000E+00  0.8000E+01
     -4.862  0.0000E+00  0.8000E+01
     -4.790  0.0000E+00  0.8000E+01
     -4.718  0.0000E+00  0.8000E+01
     -4.645  0.0000E+00  0.8000E+01
     -4.573  0.0000E+00  0.8000E+01
     -4.501  0.0000E+00  0.8000E+01
     -4.429  0.0000E+00  0.8000E+01
     -4.357  0.0000E+00  0.8000E+01
     -4.285  0.0000E+00  0.8000E+01
     -4.213  0.0000E+00  0.8000E+01
     -4.141  0.0000E+00  0.8000E+01
     -4.069  0.0000E+00  0.8000E+01
     -3.997  0.0000E+00  0.8000E+01
     -3.924  0.0000E+00  0.8000E+01
     -3.852  0.0000E+00  0.8000E+01
     -3.780  0.0000E+00  0.8000E+01
     -3.708  0.0000E+00  0.8000E+01
     -3.636  0.0000E+00  0.8000E+01
     -3.564  0.0000E+00  0.8000E+01
     -3.492  0.0000E+00  0.8000E+01
     -3.420  0.0000E+00  0.8000E+01
     -3.348  0.0000E+00  0.8000E+01
     -3.276  0.0000E+00  0.8000E+01
     -3.203  0.0000E+00  0.8000E+01
     -3.131  0.0000E+00  0.8000E+01
     -3.059  0.0000E+00  0.8000E+01
     -2.987  0.0000E+00  0.8000E+01
     -2.915  0.0000E+00  0.8000E+01
     -2.843  0.0000E+00  0.8000E+01
     -2.771  0.0000E+00  0.8000E+01
     -2.699  0.0000E+00  0.8000E+01
     -2.627  0.0000E+00  0.8000E+01
     -2.555  0.0000E+00  0.8000E+01
     -2.482  0.0000E+00  0.8000E+01
     -2.410  0.0000E+00  0.8000E+01
     -2.338  0.0000E+00  0.8000E+01
     -2.266  0.0000E+00  0.8000E+01
     -2.194  0.0000E+00  0.8000E+01
     -2.122  0.0000E+00  0.8000E+01
     -2.050  0.0000E+00  0.8000E+01
     -1.978  0.0000E+00  0.8000E+01
     -1.906  0.0000E+00  0.8000E+01
     -1.834  0.0000E+00  0.8000E+01
     -1.761  0.0000E+00  0.8000E+01
     -1.689  0.0000E+00  0.8000E+01
     -1.617  0.0000E+00  0.8000E+01
     -1.545  0.0000E+00  0.8000E+01
     -1.473  0.7449E-14  0.8000E+01
     -1.401  0.4150E-12  0.8000E+01
     -1.329  0.1831E-10  0.8000E+01
     -1.257  0.6269E-09  0.8000E+01
     -1.185  0.1664E-07  0.8000E+01
     -1.113  0.3428E-06  0.8000E+01
     -1.040  0.5480E-05  0.8000E+01
     -0.968  0.6799E-04  0.8000E+01
     -0.896  0.6548E-03  0.8000E+01
     -0.824  0.4896E-02  0.8000E+01
     -0.752  0.2843E-01  0.8002E+01
     -0.680  0.1282E+00  0.8012E+01
     -0.608  0.4492E+00  0.8044E+01
     -0.536  0.1222E+01  0.8132E+01
     -0.464  0.2585E+01  0.8318E+01
     -0.392  0.4246E+01  0.8623E+01
     -0.319  0.5420E+01  0.9013E+01
     -0.247  0.5375E+01  0.9400E+01
     -0.175  0.4141E+01  0.9698E+01
     -0.103  0.2479E+01  0.9877E+01
     -0.031  0.1153E+01  0.9960E+01
      0.041  0.4210E+00  0.9990E+01
      0.113  0.1453E+00  0.1000E+02
      0.185  0.1606E+00  0.1001E+02
      0.257  0.5108E+00  0.1005E+02
      0.329  0.1512E+01  0.1016E+02
      0.402  0.3621E+01  0.1042E+02
      0.474  0.7022E+01  0.1092E+02
      0.546  0.1110E+02  0.1172E+02
      0.618  0.1434E+02  0.1275E+02
      0.690  0.1513E+02  0.1384E+02
      0.762  0.1295E+02  0.1477E+02
      0.834  0.8940E+01  0.1542E+02
      0.906  0.4933E+01  0.1577E+02
      0.978  0.2160E+01  0.1593E+02
      1.050  0.7469E+00  0.1598E+02
      1.122  0.2029E+00  0.1600E+02
      1.195  0.4321E-01  0.1600E+02
      1.267  0.7191E-02  0.1600E+02
      1.339  0.9343E-03  0.1600E+02
      1.411  0.9461E-04  0.1600E+02
      1.483  0.7462E-05  0.1600E+02
      1.555  0.4580E-06  0.1600E+02
      1.627  0.2186E-07  0.1600E+02
      1.699  0.8112E-09  0.1600E+02
      1.771  0.2338E-10  0.1600E+02
      1.843  0.5243E-12  0.1600E+02
      1.916  0.8023E-14  0.1600E+02
      1.988  0.0000E+00  0.1600E+02
      2.060  0.0000E+00  0.1600E+02
      2.132  0.0000E+00  0.1600E+02
      2.204  0.0000E+00  0.1600E+02
      2.276  0.0000E+00  0.1600E+02
      2.348  0.0000E+00  0.1600E+02
      2.420  0.0000E+00  0.1600E+02
      2.492  0.0000E+00  0.1600E+02
      2.564  0.0000E+00  0.1600E+02
      2.637  0.0000E+00  0.1600E+02
      2.709  0.0000E+00  0.1600E+02
      2.70438441    -18.92492619  301     -8.32642318      1.00000000
    -18.925  0.0000E+00  0.0000E+00
    -18.853  0.0000E+00  0.0000E+00
    -18.781  0.0000E+00  0.0000E+00
    -18.709  0.0000E+00  0.0000E+00
    -18.637  0.0000E+00  0.0000E+00
    -18.564  0.0000E+00  0.0000E+00
    -18.492  0.0000E+00  0.0000E+00
    -18.420  0.0000E+00  0.0000E+00
    -18.348  0.0000E+00  0.0000E+00
    -18.276  0.0000E+00  0.0000E+00
    -18.204  0.0000E+00  0.0000E+00
    -18.132  0.0000E+00  0.0000E+00
    -18.060  0.1386E-14  0.9992E-16
    -17.988  0.7773E-13  0.5704E-14
    -17.916  0.3349E-11  0.2471E-12
    -17.843  0.1117E-09  0.8297E-11
    -17.771  0.2881E-08  0.2160E-09
    -17.699  0.5752E-07  0.4363E-08
    -17.627  0.8890E-06  0.6846E-07
    -17.555  0.1064E-04  0.8355E-06
    -17.483  0.9860E-04  0.7944E-05
    -17.411  0.7079E-03  0.5898E-04
    -17.339  0.3937E-02  0.3428E-03
    -17.267  0.1697E-01  0.1566E-02
    -17.195  0.5670E-01  0.5654E-02
    -17.122  0.1468E+00  0.1624E-01
    -17.050  0.2948E+00  0.3750E-01
    -16.978  0.4590E+00  0.7059E-01
    -16.906  0.5541E+00  0.1105E+00
    -16.834  0.5186E+00  0.1479E+00
    -16.762  0.3765E+00  0.1751E+00
    -16.690  0.2119E+00  0.1903E+00
    -16.618  0.9247E-01  0.1970E+00
    -16.546  0.3128E-01  0.1993E+00
    -16.474  0.8203E-02  0.1999E+00
    -16.402  0.1667E-02  0.2000E+00
    -16.329  0.2625E-03  0.2000E+00
    -16.257  0.3203E-04  0.2000E+00
    -16.185  0.3026E-05  0.2000E+00
    -16.113  0.2214E-06  0.2000E+00
    -16.041  0.1254E-07  0.2000E+00
    -15.969  0.5498E-09  0.2000E+00
    -15.897  0.1865E-10  0.2000E+00
    -15.825  0.4895E-12  0.2000E+00
    -15.753  0.1016E-13  0.2000E+00
    -15.681  0.0000E+00  0.2000E+00
    -15.608  0.0000E+00  0.2000E+00
    -15.536  0.0000E+00  0.2000E+00
    -15.464  0.0000E+00  0.2000E+00
    -15.392  0.0000E+00  0.2000E+00
    -15.320  0.0000E+00  0.2000E+00
    -15.248  0.0000E+00  0.2000E+00
    -15.176  0.0000E+00  0.2000E+00
    -15.104  0.0000E+00  0.2000E+00
    -15.032  0.0000E+00  0.2000E+00
    -14.960  0.0000E+00  0.2000E+00
    -14.887  0.0000E+00  0.2000E+00
    -14.815  0.0000E+00  0.2000E+00
    -14.743  0.0000E+00  0.2000E+00
    -14.671  0.0000E+00  0.2000E+00
    -14.599  0.0000E+00  0.2000E+00
    -14.527  0.0000E+00  0.2000E+00
    -14.455  0.0000E+00  0.2000E+00
    -14.383  0.0000E+00  0.2000E+00
    -14.311  0.0000E+00  0.2000E+00
    -14.239  0.0000E+00  0.2000E+00
    -14.166  0.0000E+00  0.2000E+00
    -14.094  0.0000E+00  0.2000E+00
    -14.022  0.0000E+00  0.2000E+00
    -13.950  0.0000E+00  0.2000E+00
    -13.878  0.0000E+00  0.2000E+00
    -13.806  0.0000E+00  0.2000E+00
    -13.734  0.0000E+00  0.2000E+00
    -13.662  0.0000E+00  0.2000E+00
    -13.590  0.0000E+00  0.2000E+00
    -13.518  0.0000E+00  0.2000E+00
    -13.446  0.0000E+00  0.2000E+00
    -13.373  0.0000E+00  0.2000E+00
    -13.301  0.0000E+00  0.2000E+00
    -13.229  0.0000E+00  0.2000E+00
    -13.157  0.0000E+00  0.2000E+00
    -13.085  0.0000E+00  0.2000E+00
    -13.013  0.0000E+00  0.2000E+00
    -12.941  0.0000E+00  0.2000E+00
    -12.869  0.0000E+00  0.2000E+00
    -12.797  0.0000E+00  0.2000E+00
    -12.725  0.0000E+00  0.2000E+00
    -12.652  0.0000E+00  0.2000E+00
    -12.580  0.0000E+00  0.2000E+00
    -12.508  0.0000E+00  0.2000E+00
    -12.436  0.0000E+00  0.2000E+00
    -12.364  0.0000E+00  0.2000E+00
    -12.292  0.0000E+00  0.2000E+00
    -12.220  0.0000E+00  0.2000E+00
    -12.148  0.0000E+00  0.2000E+00
    -12.076  0.0000E+00  0.2000E+00
    -12.004  0.0000E+00  0.2000E+00
    -11.931  0.0000E+00  0.2000E+00
    -11.859  0.0000E+00  0.2000E+00
    -11.787  0.0000E+00  0.2000E+00
    -11.715  0.0000E+00  0.2000E+00
    -11.643  0.0000E+00  0.2000E+00
    -11.571  0.0000E+00  0.2000E+00
    -11.499  0.0000E+00  0.2000E+00
    -11.427  0.0000E+00  0.2000E+00
    -11.355  0.0000E+00  0.2000E+00
    -11.283  0.0000E+00  0.2000E+00
    -11.210  0.0000E+00  0.2000E+00
    -11.138  0.0000E+00  0.2000E+00
    -11.066  0.0000E+00  0.2000E+00
    -10.994  0.0000E+00  0.2000E+00
    -10.922  0.0000E+00  0.2000E+00
    -10.850  0.0000E+00  0.2000E+00
    -10.778  0.0000E+00  0.2000E+00
    -10.706  0.0000E+00  0.2000E+00
    -10.634  0.0000E+00  0.2000E+00
    -10.562  0.0000E+00  0.2000E+00
    -10.489  0.9239E-15  0.2000E+00
    -10.417  0.5247E-13  0.2000E+00
    -10.345  0.2397E-11  0.2000E+00
    -10.273  0.8477E-10  0.2000E+00
    -10.201  0.2328E-08  0.2000E+00
    -10.129  0.4965E-07  0.2000E+00
    -10.057  0.8232E-06  0.2000E+00
     -9.985  0.1062E-04  0.2000E+00
     -9.913  0.1067E-03  0.2000E+00
     -9.841  0.8349E-03  0.2001E+00
     -9.769  0.5097E-02  0.2004E+00
     -9.696  0.2429E-01  0.2022E+00
     -9.624  0.9046E-01  0.2087E+00
     -9.552  0.2634E+00  0.2277E+00
     -9.480  0.6001E+00  0.2710E+00
     -9.408  0.1070E+01  0.3481E+00
     -9.336  0.1495E+01  0.4560E+00
     -9.264  0.1637E+01  0.5740E+00
     -9.192  0.1404E+01  0.6752E+00
     -9.120  0.9434E+00  0.7432E+00
     -9.048  0.4965E+00  0.7790E+00
     -8.975  0.2046E+00  0.7938E+00
     -8.903  0.6595E-01  0.7985E+00
     -8.831  0.1662E-01  0.7997E+00
     -8.759  0.3272E-02  0.8000E+00
     -8.687  0.5029E-03  0.8000E+00
     -8.615  0.6027E-04  0.8000E+00
     -8.543  0.5628E-05  0.8000E+00
     -8.471  0.4092E-06  0.8000E+00
     -8.399  0.2314E-07  0.8000E+00
     -8.327  0.1017E-08  0.8000E+00
     -8.254  0.3472E-10  0.8000E+00
     -8.182  0.9203E-12  0.8000E+00
     -8.110  0.1879E-13  0.8000E+00
     -8.038  0.3080E-15  0.8000E+00
     -7.966  0.0000E+00  0.8000E+00
     -7.894  0.0000E+00  0.8000E+00
     -7.822  0.0000E+00  0.8000E+00
     -7.750  0.0000E+00  0.8000E+00
     -7.678  0.0000E+00  0.8000E+00
     -7.606  0.0000E+00  0.8000E+00
     -7.533  0.0000E+00  0.8000E+00
     -7.461  0.0000E+00  0.8000E+00
     -7.389  0.0000E+00  0.8000E+00
     -7.317  0.0000E+00  0.8000E+00
     -7.245  0.0000E+00  0.8000E+00
     -7.173  0.0000E+00  0.8000E+00
     -7.101  0.0000E+00  0.8000E+00
     -7.029  0.0000E+00  0.8000E+00
     -6.957  0.0000E+00  0.8000E+00
     -6.885  0.0000E+00  0.8000E+00
     -6.813  0.0000E+00  0.8000E+00
     -6.740  0.0000E+00  0.8000E+00
     -6.668  0.0000E+00  0.8000E+00
     -6.596  0.0000E+00  0.8000E+00
     -6.524  0.0000E+00  0.8000E+00
     -6.452  0.0000E+00  0.8000E+00
     -6.380  0.0000E+00  0.8000E+00
     -6.308  0.0000E+00  0.8000E+00
     -6.236  0.0000E+00  0.8000E+00
     -6.164  0.0000E+00  0.8000E+00
     -6.092  0.0000E+00  0.8000E+00
     -6.019  0.0000E+00  0.8000E+00
     -5.947  0.0000E+00  0.8000E+00
     -5.875  0.0000E+00  0.8000E+00
     -5.803  0.0000E+00  0.8000E+00
     -5.731  0.0000E+00  0.8000E+00
     -5.659  0.0000E+00  0.8000E+00
     -5.587  0.0000E+00  0.8000E+00
     -5.515  0.0000E+00  0.8000E+00
     -5.443  0.0000E+00  0.8000E+00
     -5.371  0.0000E+00  0.8000E+00
     -5.298  0.0000E+00  0.8000E+00
     -5.226  0.0000E+00  0.8000E+00
     -5.154  0.0000E+00  0.8000E+00
     -5.082  0.0000E+00  0.8000E+00
     -5.010  0.0000E+00  0.8000E+00
     -4.938  0.0000E+00  0.8000E+00
     -4.866  0.0000E+00  0.8000E+00
     -4.794  0.0000E+00  0.8000E+00
     -4.722  0.0000E+00  0.8000E+00
     -4.650  0.0000E+00  0.8000E+00
     -4.577  0.0000E+00  0.8000E+00
     -4.505  0.0000E+00  0.8000E+00
     -4.433  0.0000E+00  0.8000E+00
     -4.361  0.0000E+00  0.8000E+00
     -4.289  0.0000E+00  0.8000E+00
     -4.217  0.0000E+00  0.8000E+00
     -4.145  0.0000E+00  0.8000E+00
     -4.073  0.0000E+00  0.8000E+00
     -4.001  0.0000E+00  0.8000E+00
     -3.929  0.0000E+00  0.8000E+00
     -3.857  0.0000E+00  0.8000E+00
     -3.784  0.0000E+00  0.8000E+00
     -3.712  0.0000E+00  0.8000E+00
     -3.640  0.0000E+00  0.8000E+00
     -3.568  0.0000E+00  0.8000E+00
     -3.496  0.0000E+00  0.8000E+00
     -3.424  0.0000E+00  0.8000E+00
     -3.352  0.0000E+00  0.8000E+00
     -3.280  0.0000E+00  0.8000E+00
     -3.208  0.0000E+00  0.8000E+00
     -3.136  0.0000E+00  0.8000E+00
     -3.063  0.0000E+00  0.8000E+00
     -2.991  0.0000E+00  0.8000E+00
     -2.919  0.0000E+00  0.8000E+00
     -2.847  0.0000E+00  0.8000E+00
     -2.775  0.0000E+00  0.8000E+00
     -2.703  0.0000E+00  0.8000E+00
     -2.631  0.0000E+00  0.8000E+00
     -2.559  0.0000E+00  0.8000E+00
     -2.487  0.0000E+00  0.8000E+00
     -2.415  0.0000E+00  0.8000E+00
     -2.342  0.0000E+00  0.8000E+00
     -2.270  0.0000E+00  0.8000E+00
     -2.198  0.0000E+00  0.8000E+00
     -2.126  0.0000E+00  0.8000E+00
     -2.054  0.0000E+00  0.8000E+00
     -1.982  0.0000E+00  0.8000E+00
     -1.910  0.0000E+00  0.8000E+00
     -1.838  0.0000E+00  0.8000E+00
     -1.766  0.0000E+00  0.8000E+00
     -1.694  0.0000E+00  0.8000E+00
     -1.621  0.0000E+00  0.8000E+00
     -1.549  0.0000E+00  0.8000E+00
     -1.477  0.1925E-15  0.8000E+00
     -1.405  0.1286E-13  0.8000E+00
     -1.333  0.6208E-12  0.8000E+00
     -1.261  0.2325E-10  0.8000E+00
     -1.189  0.6735E-09  0.8000E+00
     -1.117  0.1510E-07  0.8000E+00
     -1.045  0.2621E-06  0.8000E+00
     -0.973  0.3523E-05  0.8000E+00
     -0.901  0.3668E-04  0.8000E+00
     -0.828  0.2958E-03  0.8000E+00
     -0.756  0.1848E-02  0.8002E+00
     -0.684  0.8951E-02  0.8008E+00
     -0.612  0.3360E-01  0.8032E+00
     -0.540  0.9778E-01  0.8103E+00
     -0.468  0.2207E+00  0.8262E+00
     -0.396  0.3862E+00  0.8540E+00
     -0.324  0.5241E+00  0.8918E+00
     -0.252  0.5517E+00  0.9316E+00
     -0.180  0.4504E+00  0.9641E+00
     -0.107  0.2852E+00  0.9846E+00
     -0.035  0.1401E+00  0.9947E+00
      0.037  0.5374E-01  0.9986E+00
      0.109  0.1832E-01  0.9999E+00
      0.181  0.1593E-01  0.1001E+01
      0.253  0.4719E-01  0.1004E+01
      0.325  0.1400E+00  0.1015E+01
      0.397  0.3378E+00  0.1039E+01
      0.469  0.6619E+00  0.1087E+01
      0.541  0.1061E+01  0.1163E+01
      0.614  0.1398E+01  0.1264E+01
      0.686  0.1509E+01  0.1373E+01
      0.758  0.1327E+01  0.1468E+01
      0.830  0.9406E+00  0.1536E+01
      0.902  0.5324E+00  0.1575E+01
      0.974  0.2387E+00  0.1592E+01
      1.046  0.8426E-01  0.1598E+01
      1.118  0.2330E-01  0.1600E+01
      1.190  0.5034E-02  0.1600E+01
      1.262  0.8478E-03  0.1600E+01
      1.335  0.1111E-03  0.1600E+01
      1.407  0.1133E-04  0.1600E+01
      1.479  0.8970E-06  0.1600E+01
      1.551  0.5516E-07  0.1600E+01
      1.623  0.2632E-08  0.1600E+01
      1.695  0.9746E-10  0.1600E+01
      1.767  0.2798E-11  0.1600E+01
      1.839  0.6221E-13  0.1600E+01
      1.911  0.1001E-14  0.1600E+01
      1.983  0.0000E+00  0.1600E+01
      2.056  0.0000E+00  0.1600E+01
      2.128  0.0000E+00  0.1600E+01
      2.200  0.0000E+00  0.1600E+01
      2.272  0.0000E+00  0.1600E+01
      2.344  0.0000E+00  0.1600E+01
      2.416  0.0000E+00  0.1600E+01
      2.488  0.0000E+00  0.1600E+01
      2.560  0.0000E+00  0.1600E+01
      2.632  0.0000E+00  0.1600E+01
      2.704  0.0000E+00  0.1600E+01
