    5    5   10    1
  0.2049122E+03  0.1005421E-08  0.1029495E-08  0.9906798E-09  0.5000000E-15
  1.000000000000000E-004
  CAR 
 unknown system                          
      8      4      8
 
  0.2500000E+00  0.2500000E+00  0.2500000E+00  0.2500000E+00
    1      -16.924920   1.000000
    2       -9.344729   1.000000
    3       -9.309350   1.000000
    4       -9.273477   1.000000
    5       -0.310583   0.000000
    6        0.545753   0.000000
    7        0.668617   0.000000
    8        0.704384   0.000000
 
 -0.2500000E+00  0.2500000E+00  0.2500000E+00  0.2500000E+00
    1      -16.924893   1.000000
    2       -9.344685   1.000000
    3       -9.309376   1.000000
    4       -9.273468   1.000000
    5       -0.310678   0.000000
    6        0.553937   0.000000
    7        0.669816   0.000000
    8        0.692132   0.000000
 
  0.2500000E+00 -0.2500000E+00  0.2500000E+00  0.2500000E+00
    1      -16.924914   1.000000
    2       -9.344735   1.000000
    3       -9.309393   1.000000
    4       -9.273494   1.000000
    5       -0.312941   0.000000
    6        0.550686   0.000000
    7        0.682144   0.000000
    8        0.699477   0.000000
 
 -0.2500000E+00 -0.2500000E+00  0.2500000E+00  0.2500000E+00
    1      -16.924926   1.000000
    2       -9.344735   1.000000
    3       -9.309438   1.000000
    4       -9.273550   1.000000
    5       -0.302485   0.000000
    6        0.529725   0.000000
    7        0.653260   0.000000
    8        0.680718   0.000000
