 running on   16 total cores
 distrk:  each k-point on   16 cores,    1 groups
 distr:  one band on    4 cores,    4 groups
 using from now: INCAR     
 vasp.5.4.4.18Apr17-6-g9f103f2a35 (build Nov 25 2021 15:25:00) complex          
  
 POSCAR found type information on POSCAR  H  C 
 POSCAR found :  2 types and       5 ions
 scaLAPACK will be used
 LDA part: xc-table for Pade appr. of Perdew
 POSCAR found type information on POSCAR  H  C 
 POSCAR found :  2 types and       5 ions
 generate k-points for:    2    2    2
 POSCAR, INCAR and KPOINTS ok, starting setup
 FFT: planning ...
 WAVECAR not read
 prediction of wavefunctions initialized - no I/O
 entering main loop
       N       E                     dE             d eps       ncg     rms          rms(c)
DAV:   1     0.114136798596E+02    0.11414E+02   -0.20845E+03    96   0.426E+02
DAV:   2    -0.235153464779E+02   -0.34929E+02   -0.34929E+02    64   0.114E+02
DAV:   3    -0.273154269201E+02   -0.38001E+01   -0.38001E+01    64   0.432E+01
DAV:   4    -0.274653508759E+02   -0.14992E+00   -0.14992E+00   128   0.950E+00
DAV:   5    -0.274653980138E+02   -0.47138E-04   -0.47138E-04    96   0.188E-01    0.861E+00
RMM:   6    -0.246404897100E+02    0.28249E+01   -0.52172E+00    64   0.139E+01    0.425E+00
RMM:   7    -0.241606734169E+02    0.47982E+00   -0.11561E+00    64   0.620E+00    0.226E+00
RMM:   8    -0.240153597920E+02    0.14531E+00   -0.16254E-01    64   0.287E+00    0.227E-01
RMM:   9    -0.240097493512E+02    0.56104E-02   -0.10888E-02    64   0.691E-01    0.194E-01
RMM:  10    -0.240033888573E+02    0.63605E-02   -0.24481E-02    64   0.851E-01    0.275E-01
RMM:  11    -0.240040990174E+02   -0.71016E-03   -0.80428E-03    64   0.557E-01    0.825E-02
RMM:  12    -0.240136823793E+02   -0.95834E-02   -0.35939E-03    64   0.369E-01    0.126E-01
RMM:  13    -0.240141139288E+02   -0.43155E-03   -0.91525E-04    64   0.168E-01    0.527E-02
RMM:  14    -0.240170583525E+02   -0.29444E-02   -0.17901E-03    64   0.258E-01    0.424E-02
RMM:  15    -0.240172355616E+02   -0.17721E-03   -0.69604E-05    64   0.546E-02    0.199E-02
RMM:  16    -0.240174707946E+02   -0.23523E-03   -0.26828E-04    64   0.973E-02    0.181E-02
RMM:  17    -0.240174819007E+02   -0.11106E-04   -0.39447E-05    64   0.366E-02    0.439E-03
RMM:  18    -0.240174992995E+02   -0.17399E-04   -0.11360E-05    64   0.224E-02    0.307E-03
RMM:  19    -0.240175009585E+02   -0.16590E-05   -0.39238E-07    48   0.544E-03    0.274E-03
RMM:  20    -0.240175024582E+02   -0.14997E-05   -0.21205E-06    48   0.898E-03    0.686E-04
RMM:  21    -0.240175028675E+02   -0.40930E-06   -0.23202E-07    48   0.445E-03
    1 T=     0. E= -.24017381E+02 F= -.24017503E+02 E0= -.24017503E+02  EK= 0.12218E-03 SP= 0.00E+00 SK= 0.00E+00
 bond charge predicted
       N       E                     dE             d eps       ncg     rms          rms(c)
DAV:   1    -0.240184652058E+02   -0.96275E-03   -0.99574E-04    96   0.301E-01    0.148E-02
RMM:   2    -0.240184608356E+02    0.43701E-05   -0.24030E-05    64   0.372E-02    0.726E-03
RMM:   3    -0.240184611289E+02   -0.29332E-06   -0.70213E-06    64   0.175E-02    0.297E-03
RMM:   4    -0.240184612787E+02   -0.14975E-06   -0.27544E-07    48   0.446E-03
    2 T=     2. E= -.24017396E+02 F= -.24018461E+02 E0= -.24018461E+02  EK= 0.10655E-02 SP= 0.00E+00 SK= 0.00E+00
 bond charge predicted
 prediction of wavefunctions
       N       E                     dE             d eps       ncg     rms          rms(c)
DAV:   1    -0.240201535738E+02   -0.16924E-02   -0.79519E-04    72   0.284E-01    0.400E-03
RMM:   2    -0.240201565119E+02   -0.29381E-05   -0.29160E-05    64   0.458E-02    0.118E-03
RMM:   3    -0.240201569315E+02   -0.41960E-06   -0.11854E-06    52   0.928E-03    0.113E-03
RMM:   4    -0.240201571973E+02   -0.26580E-06   -0.18003E-07    48   0.403E-03
    3 T=     5. E= -.24017420E+02 F= -.24020157E+02 E0= -.24020157E+02  EK= 0.27375E-02 SP= 0.00E+00 SK= 0.00E+00
 bond charge predicted
 prediction of wavefunctions
       N       E                     dE             d eps       ncg     rms          rms(c)
DAV:   1    -0.240222089423E+02   -0.20520E-02   -0.17416E-04    80   0.106E-01    0.301E-03
RMM:   2    -0.240222095395E+02   -0.59726E-06   -0.45302E-06    60   0.176E-02    0.207E-03
RMM:   3    -0.240222099641E+02   -0.42458E-06   -0.83314E-07    48   0.657E-03    0.712E-04
RMM:   4    -0.240222102765E+02   -0.31235E-06   -0.12903E-07    48   0.338E-03
    4 T=     9. E= -.24017449E+02 F= -.24022210E+02 E0= -.24022210E+02  EK= 0.47609E-02 SP= 0.00E+00 SK= 0.00E+00
 bond charge predicted
 prediction of wavefunctions
       N       E                     dE             d eps       ncg     rms          rms(c)
DAV:   1    -0.240241644499E+02   -0.19545E-02   -0.24798E-04    64   0.124E-01    0.220E-03
RMM:   2    -0.240241662743E+02   -0.18244E-05   -0.19196E-06    49   0.123E-02    0.129E-03
RMM:   3    -0.240241687419E+02   -0.24676E-05   -0.31191E-07    48   0.482E-03    0.379E-04
RMM:   4    -0.240241704271E+02   -0.16852E-05   -0.13016E-07    48   0.267E-03    0.225E-04
RMM:   5    -0.240241729971E+02   -0.25700E-05   -0.17676E-07    48   0.245E-03    0.237E-04
RMM:   6    -0.240241733700E+02   -0.37288E-06    0.00000E+00    32   0.124E-03
    5 T=    13. E= -.24017475E+02 F= -.24024173E+02 E0= -.24024173E+02  EK= 0.66988E-02 SP= 0.00E+00 SK= 0.00E+00
 bond charge predicted
 prediction of wavefunctions
       N       E                     dE             d eps       ncg     rms          rms(c)
DAV:   1    -0.240256597464E+02   -0.14867E-02   -0.28755E-04    72   0.137E-01    0.818E-04
RMM:   2    -0.240256611561E+02   -0.14097E-05   -0.14133E-06    48   0.963E-03    0.714E-04
RMM:   3    -0.240256620711E+02   -0.91506E-06   -0.16611E-07    48   0.356E-03    0.513E-04
RMM:   4    -0.240256636428E+02   -0.15717E-05   -0.46884E-08    42   0.200E-03    0.116E-04
RMM:   5    -0.240256642442E+02   -0.60137E-06   -0.46606E-08    38   0.152E-03
    6 T=    16. E= -.24017490E+02 F= -.24025664E+02 E0= -.24025664E+02  EK= 0.81742E-02 SP= 0.00E+00 SK= 0.00E+00
 bond charge predicted
 prediction of wavefunctions
       N       E                     dE             d eps       ncg     rms          rms(c)
DAV:   1    -0.240264596024E+02   -0.79596E-03   -0.29277E-04    64   0.142E-01    0.702E-04
RMM:   2    -0.240264606755E+02   -0.10731E-05   -0.18695E-06    50   0.118E-02    0.531E-04
RMM:   3    -0.240264612112E+02   -0.53567E-06   -0.20072E-07    48   0.417E-03    0.448E-04
RMM:   4    -0.240264624435E+02   -0.12323E-05   -0.50365E-08    42   0.213E-03    0.713E-05
RMM:   5    -0.240264628730E+02   -0.42953E-06   -0.69927E-09    34   0.150E-03
    7 T=    17. E= -.24017490E+02 F= -.24026463E+02 E0= -.24026463E+02  EK= 0.89728E-02 SP= 0.00E+00 SK= 0.00E+00
 bond charge predicted
 prediction of wavefunctions
       N       E                     dE             d eps       ncg     rms          rms(c)
DAV:   1    -0.240265743751E+02   -0.11193E-03   -0.24218E-04    64   0.137E-01    0.600E-04
RMM:   2    -0.240265750436E+02   -0.66849E-06   -0.14864E-06    48   0.124E-02    0.378E-04
RMM:   3    -0.240265753728E+02   -0.32920E-06   -0.17744E-07    48   0.401E-03    0.320E-04
RMM:   4    -0.240265760696E+02   -0.69682E-06   -0.38394E-08    42   0.203E-03
    8 T=    18. E= -.24017478E+02 F= -.24026576E+02 E0= -.24026576E+02  EK= 0.90979E-02 SP= 0.00E+00 SK= 0.00E+00
 bond charge predicted
 prediction of wavefunctions
       N       E                     dE             d eps       ncg     rms          rms(c)
DAV:   1    -0.240262144499E+02    0.36092E-03   -0.17214E-04    64   0.128E-01    0.536E-04
RMM:   2    -0.240262147255E+02   -0.27560E-06   -0.12564E-06    48   0.122E-02    0.314E-04
RMM:   3    -0.240262148291E+02   -0.10361E-06   -0.15118E-07    48   0.393E-03    0.299E-04
RMM:   4    -0.240262149604E+02   -0.13124E-06   -0.12766E-08    36   0.178E-03
    9 T=    17. E= -.24017458E+02 F= -.24026215E+02 E0= -.24026215E+02  EK= 0.87568E-02 SP= 0.00E+00 SK= 0.00E+00
 bond charge predicted
 prediction of wavefunctions
       N       E                     dE             d eps       ncg     rms          rms(c)
DAV:   1    -0.240257131445E+02    0.50168E-03   -0.92948E-05    96   0.116E-01    0.744E-04
RMM:   2    -0.240257134025E+02   -0.25807E-06   -0.80929E-07    48   0.109E-02    0.320E-04
RMM:   3    -0.240257135676E+02   -0.16511E-06   -0.85649E-08    48   0.290E-03    0.228E-04
RMM:   4    -0.240257137205E+02   -0.15288E-06   -0.66781E-09    36   0.142E-03
   10 T=    16. E= -.24017438E+02 F= -.24025714E+02 E0= -.24025714E+02  EK= 0.82758E-02 SP= 0.00E+00 SK= 0.00E+00
 bond charge predicted
 prediction of wavefunctions
 wavefunctions rotated
