 vasp.5.4.4.18Apr17-6-g9f103f2a35 (build Nov 25 2021 15:25:00) complex          
  
 executed on             LinuxIFC date 2022.02.21  10:17:14
 running on   16 total cores
 distrk:  each k-point on   16 cores,    1 groups
 distr:  one band on NCORES_PER_BAND=   4 cores,    4 groups


--------------------------------------------------------------------------------------------------------


 INCAR:
 POTCAR:    PAW_PBE H 15Jun2001                   
 POTCAR:    PAW_PBE C 08Apr2002                   
 POTCAR:    PAW_PBE H 15Jun2001                   
   VRHFIN =H: ultrasoft test                                                    
   LEXCH  = PE                                                                  
   EATOM  =    12.4884 eV,    0.9179 Ry                                         
                                                                                
   TITEL  = PAW_PBE H 15Jun2001                                                 
   LULTRA =        F    use ultrasoft PP ?                                      
   IUNSCR =        0    unscreen: 0-lin 1-nonlin 2-no                           
   RPACOR =    0.000    partial core radius                                     
   POMASS =    1.000; ZVAL   =    1.000    mass and valenz                      
   RCORE  =    1.100    outmost cutoff radius                                   
   RWIGS  =    0.700; RWIGS  =    0.370    wigner-seitz radius (au A)           
   ENMAX  =  250.000; ENMIN  =  200.000 eV                                      
   RCLOC  =    0.701    cutoff for local pot                                    
   LCOR   =        T    correct aug charges                                     
   LPAW   =        T    paw PP                                                  
   EAUG   =  400.000                                                            
   RMAX   =    1.123    core radius for proj-oper                               
   RAUG   =    1.200    factor for augmentation sphere                          
   RDEP   =    1.112    radius for radial grids                                 
   RDEPT  =    0.926    core radius for aug-charge                              
                                                                                
   Atomic configuration                                                         
    2 entries                                                                   
     n  l   j            E        occ.                                          
     1  0  0.50        -6.4927   1.0000                                         
     2  1  0.50        -3.4015   0.0000                                         
   Description                                                                  
     l       E           TYP  RCUT    TYP  RCUT                                 
     0     -6.4927494     23  1.100                                             
     0      6.8029130     23  1.100                                             
     1     -4.0817478     23  1.100                                             
  local pseudopotential read in
  atomic valenz-charges read in
  non local Contribution for L=           0  read in
    real space projection operators read in
  non local Contribution for L=           0  read in
    real space projection operators read in
  non local Contribution for L=           1  read in
    real space projection operators read in
    PAW grid and wavefunctions read in
 
   number of l-projection  operators is LMAX  =           3
   number of lm-projection operators is LMMAX =           5
 
 POTCAR:    PAW_PBE C 08Apr2002                   
   VRHFIN =C: s2p2                                                              
   LEXCH  = PE                                                                  
   EATOM  =   147.1560 eV,   10.8157 Ry                                         
                                                                                
   TITEL  = PAW_PBE C 08Apr2002                                                 
   LULTRA =        F    use ultrasoft PP ?                                      
   IUNSCR =        1    unscreen: 0-lin 1-nonlin 2-no                           
   RPACOR =    1.200    partial core radius                                     
   POMASS =   12.011; ZVAL   =    4.000    mass and valenz                      
   RCORE  =    1.500    outmost cutoff radius                                   
   RWIGS  =    1.630; RWIGS  =    0.863    wigner-seitz radius (au A)           
   ENMAX  =  400.000; ENMIN  =  300.000 eV                                      
   ICORE  =        2    local potential                                         
   LCOR   =        T    correct aug charges                                     
   LPAW   =        T    paw PP                                                  
   EAUG   =  644.873                                                            
   DEXC   =    0.000                                                            
   RMAX   =    1.529    core radius for proj-oper                               
   RAUG   =    1.300    factor for augmentation sphere                          
   RDEP   =    1.501    radius for radial grids                                 
   RDEPT  =    1.300    core radius for aug-charge                              
                                                                                
   Atomic configuration                                                         
    4 entries                                                                   
     n  l   j            E        occ.                                          
     1  0  0.50      -273.3789   2.0000                                         
     2  0  0.50       -13.7508   2.0000                                         
     2  1  0.50        -5.2854   2.0000                                         
     3  2  1.50        -5.4423   0.0000                                         
   Description                                                                  
     l       E           TYP  RCUT    TYP  RCUT                                 
     0    -13.7508458     23  1.200                                             
     0     -8.2022199     23  1.200                                             
     1     -5.2854383     23  1.500                                             
     1     34.0145650     23  1.500                                             
     2     -5.4423304      7  1.500                                             
  local pseudopotential read in
  partial core-charges read in
  partial kinetic energy density read in
  atomic valenz-charges read in
  non local Contribution for L=           0  read in
    real space projection operators read in
  non local Contribution for L=           0  read in
    real space projection operators read in
  non local Contribution for L=           1  read in
    real space projection operators read in
  non local Contribution for L=           1  read in
    real space projection operators read in
    PAW grid and wavefunctions read in
 
   number of l-projection  operators is LMAX  =           4
   number of lm-projection operators is LMMAX =           8
 
  PAW_PBE H 15Jun2001                   :
 energy of atom  1       EATOM=  -12.4884
 kinetic energy error for atom=    0.0098 (will be added to EATOM!!)
  PAW_PBE C 08Apr2002                   :
 energy of atom  2       EATOM= -147.1560
 kinetic energy error for atom=    0.0288 (will be added to EATOM!!)
 
 
 POSCAR:  H  C                                   
  positions in cartesian coordinates
  No initial velocities read in
 exchange correlation table for  LEXCH =        8
   RHO(1)=    0.500       N(1)  =     2000
   RHO(2)=  100.500       N(2)  =     4000

 VTST: version 3.2, (02/03/18)

 CHAIN: initializing optimizer
 
 OPT: Using VASP Dynamics algorithm
 CHAIN: Read ICHAIN            0
 
 POSCAR:  H  C                                   
  positions in cartesian coordinates
  No initial velocities read in
 


--------------------------------------------------------------------------------------------------------


 ion  position               nearest neighbor table
   1  0.538  0.407  0.360-   5 1.10
   2  0.395  0.480  0.439-   5 1.10
   3  0.552  0.565  0.442-   5 1.11
   4  0.528  0.417  0.539-   5 1.09
   5  0.503  0.467  0.445-   4 1.09   2 1.10   1 1.10   3 1.11
 

IMPORTANT INFORMATION: All symmetrisations will be switched off!
NOSYMM: (Re-)initialisation of all symmetry stuff for point group C_1.

 
 

Automatic generation of k-mesh.
 generate k-points for:    2    2    2
Space group operators:
 irot       det(A)        alpha          n_x          n_y          n_z        tau_x        tau_y        tau_z
    1     1.000000     0.000001     1.000000     0.000000     0.000000     0.000000     0.000000     0.000000
 
 Subroutine IBZKPT returns following result:
 ===========================================
 
 Found      4 irreducible k-points:
 
 Following reciprocal coordinates:
            Coordinates               Weight
  0.250000  0.250000  0.250000      2.000000
 -0.250000  0.250000  0.250000      2.000000
  0.250000 -0.250000  0.250000      2.000000
 -0.250000 -0.250000  0.250000      2.000000
 
 Following cartesian coordinates:
            Coordinates               Weight
  0.024865  0.024996  0.024232      2.000000
 -0.024865  0.023591  0.025555      2.000000
  0.024865 -0.023591  0.024938      2.000000
 -0.024865 -0.024996  0.026261      2.000000
 


--------------------------------------------------------------------------------------------------------




 Dimension of arrays:
   k-points           NKPTS =      4   k-points in BZ     NKDIM =      4   number of bands    NBANDS=      8
   number of dos      NEDOS =    301   number of ions     NIONS =      5
   non local maximal  LDIM  =      4   non local SUM 2l+1 LMDIM =      8
   total plane-waves  NPLWV = 343000
   max r-space proj   IRMAX =      1   max aug-charges    IRDMAX=   4150
   dimension x,y,z NGX =    70 NGY =   70 NGZ =   70
   dimension x,y,z NGXF=   140 NGYF=  140 NGZF=  140
   support grid    NGXF=   140 NGYF=  140 NGZF=  140
   ions per type =               4   1
   NGX,Y,Z   is equivalent  to a cutoff of  11.57, 11.30, 11.75 a.u.
   NGXF,Y,Z  is equivalent  to a cutoff of  23.15, 22.61, 23.49 a.u.

 SYSTEM =  unknown system                          
 POSCAR =   H  C                                   

 Startparameter for this run:
   NWRITE =      2    write-flag & timer
   PREC   = a         normal or accurate (medium, high low for compatibility)
   ISTART =      0    job   : 0-new  1-cont  2-samecut
   ICHARG =      2    charge: 1-file 2-atom 10-const
   ISPIN  =      1    spin polarized calculation?
   LNONCOLLINEAR =      F non collinear calculations
   LSORBIT =      F    spin-orbit coupling
   INIWAV =      1    electr: 0-lowe 1-rand  2-diag
   LASPH  =      F    aspherical Exc in radial PAW
   METAGGA=      F    non-selfconsistent MetaGGA calc.

 Electronic Relaxation 1
   ENCUT  =  400.0 eV  29.40 Ry    5.42 a.u.  16.40 16.79 16.16*2*pi/ulx,y,z
   ENINI  =  400.0     initial cutoff
   ENAUG  =  644.9 eV  augmentation charge cutoff
   NELM   =    120;   NELMIN=  4; NELMDL= -5     # of ELM steps 
   EDIFF  = 0.1E-05   stopping-criterion for ELM
   LREAL  =      F    real-space projection
   NLSPLINE    = F    spline interpolate recip. space projectors
   LCOMPAT=      F    compatible to vasp.4.4
   GGA_COMPAT  = T    GGA compatible to vasp.4.4-vasp.4.6
   LMAXPAW     = -100 max onsite density
   LMAXMIX     =    2 max onsite mixed and CHGCAR
   VOSKOWN=      0    Vosko Wilk Nusair interpolation
   ROPT   =    0.00000   0.00000
 Ionic relaxation
   EDIFFG = 0.1E-04   stopping-criterion for IOM
   NSW    =     10    number of steps for IOM
   NBLOCK =      1;   KBLOCK =     10    inner block; outer block 
   IBRION =      0    ionic relax: 0-MD 1-quasi-New 2-CG
   NFREE  =      0    steps in history (QN), initial steepest desc. (CG)
   ISIF   =      2    stress and relaxation
   IWAVPR =     12    prediction:  0-non 1-charg 2-wave 3-comb
   ISYM   =      0    0-nonsym 1-usesym 2-fastsym
   LCORR  =      T    Harris-Foulkes like correction to forces

   POTIM  = 0.5000    time-step for ionic-motion
   TEIN   =    0.0    initial temperature
   TEBEG  =    0.0;   TEEND  =   0.0 temperature during run
   SMASS  =  -3.00    Nose mass-parameter (am)
   estimated Nose-frequenzy (Omega)   =  0.10E-29 period in steps =****** mass=  -0.231E-26a.u.
   SCALEE = 1.0000    scale energy and forces
   NPACO  =    256;   APACO  = 16.0  distance and # of slots for P.C.
   PSTRESS=    0.0 pullay stress

  Mass of Ions in am
   POMASS =   1.00 12.01
  Ionic Valenz
   ZVAL   =   1.00  4.00
  Atomic Wigner-Seitz radii
   RWIGS  =  -1.00 -1.00
  virtual crystal weights 
   VCA    =   1.00  1.00
   NELECT =       8.0000    total number of electrons
   NUPDOWN=      -1.0000    fix difference up-down

 DOS related values:
   EMIN   =  10.00;   EMAX   =-10.00  energy-range for DOS
   EFERMI =   0.00
   ISMEAR =     0;   SIGMA  =   0.20  broadening in eV -4-tet -1-fermi 0-gaus

 Electronic relaxation 2 (details)
   IALGO  =     68    algorithm
   LDIAG  =      T    sub-space diagonalisation (order eigenvalues)
   LSUBROT=      F    optimize rotation matrix (better conditioning)
   TURBO    =      0    0=normal 1=particle mesh
   IRESTART =      0    0=no restart 2=restart with 2 vectors
   NREBOOT  =      0    no. of reboots
   NMIN     =      0    reboot dimension
   EREF     =   0.00    reference energy to select bands
   IMIX   =      4    mixing-type and parameters
     AMIX     =   0.40;   BMIX     =  1.00
     AMIX_MAG =   1.60;   BMIX_MAG =  1.00
     AMIN     =   0.10
     WC   =   100.;   INIMIX=   1;  MIXPRE=   1;  MAXMIX= -45

 Intra band minimization:
   WEIMIN = 0.0010     energy-eigenvalue tresh-hold
   EBREAK =  0.31E-07  absolut break condition
   DEPER  =   0.30     relativ break condition  

   TIME   =   0.40     timestep for ELM

  volume/ion in A,a.u.               =     204.91      1382.82
  Fermi-wavevector in a.u.,A,eV,Ry     =   0.324782  0.613749  1.435190  0.105483
  Thomas-Fermi vector in A             =   1.215206
 
 Write flags
   LWAVE        =      F    write WAVECAR
   LDOWNSAMPLE  =      F    k-point downsampling of WAVECAR
   LCHARG       =      F    write CHGCAR
   LVTOT        =      F    write LOCPOT, total local potential
   LVHAR        =      F    write LOCPOT, Hartree potential only
   LELF         =      F    write electronic localiz. function (ELF)
   LORBIT       =      0    0 simple, 1 ext, 2 COOP (PROOUT), +10 PAW based schemes


 Dipole corrections
   LMONO  =      F    monopole corrections only (constant potential shift)
   LDIPOL =      F    correct potential (dipole corrections)
   IDIPOL =      0    1-x, 2-y, 3-z, 4-all directions 
   EPSILON=  1.0000000 bulk dielectric constant

 Exchange correlation treatment:
   GGA     =    --    GGA type
   LEXCH   =     8    internal setting for exchange type
   VOSKOWN=      0    Vosko Wilk Nusair interpolation
   LHFCALC =     F    Hartree Fock is set to
   LHFONE  =     F    Hartree Fock one center treatment
   AEXX    =    0.0000 exact exchange contribution

 Linear response parameters
   LEPSILON=     F    determine dielectric tensor
   LRPA    =     F    only Hartree local field effects (RPA)
   LNABLA  =     F    use nabla operator in PAW spheres
   LVEL    =     F    velocity operator in full k-point grid
   LINTERFAST=   F  fast interpolation
   KINTER  =     0    interpolate to denser k-point grid
   CSHIFT  =0.1000    complex shift for real part using Kramers Kronig
   OMEGAMAX=  -1.0    maximum frequency
   DEG_THRESHOLD= 0.2000000E-02 threshold for treating states as degnerate
   RTIME   =   -0.100 relaxation time in fs
  (WPLASMAI=    0.000 imaginary part of plasma frequency in eV, 0.658/RTIME)
   DFIELD  = 0.0000000 0.0000000 0.0000000 field for delta impulse in time
 
 Orbital magnetization related:
   ORBITALMAG=     F  switch on orbital magnetization
   LCHIMAG   =     F  perturbation theory with respect to B field
   DQ        =  0.001000  dq finite difference perturbation B field
   LLRAUG    =     F  two centre corrections for induced B field



--------------------------------------------------------------------------------------------------------


 molecular dynamics for ions
   using a microcanonical ensemble
 charge density and potential will be updated during run
 non-spin polarized calculation
 RMM-DIIS sequential band-by-band and
  variant of blocked Davidson during initial phase
 perform sub-space diagonalisation
    before iterative eigenvector-optimisation
 modified Broyden-mixing scheme, WC =      100.0
 initial mixing is a Kerker type mixing with AMIX =  0.4000 and BMIX =      1.0000
 Hartree-type preconditioning will be used
 using additional bands            4
 reciprocal scheme for non local part
 use partial core corrections
 calculate Harris-corrections to forces 
   (improved forces if not selfconsistent)
 use gradient corrections 
 use of overlap-Matrix (Vanderbilt PP)
 Gauss-broadening in eV      SIGMA  =   0.20


--------------------------------------------------------------------------------------------------------


  energy-cutoff  :      400.00
  volume of cell :     1024.56
      direct lattice vectors                 reciprocal lattice vectors
    10.054214242  0.000000000  0.000000000     0.099460781  0.002810764 -0.002645795
    -0.290819522 10.290843753  0.000000000     0.000000000  0.097173762 -0.001411028
     0.259353060  0.143788898  9.902358206     0.000000000  0.000000000  0.100986046

  length of vectors
    10.054214242 10.294952216  9.906797530     0.099535660  0.097184006  0.100986046


 
 k-points in units of 2pi/SCALE and weight: read from INCAR                         
   0.02486520  0.02499613  0.02423231       0.250
  -0.02486520  0.02359075  0.02555520       0.250
   0.02486520 -0.02359075  0.02493782       0.250
  -0.02486520 -0.02499613  0.02626072       0.250
 
 k-points in reciprocal lattice and weights: read from INCAR                         
   0.25000000  0.25000000  0.25000000       0.250
  -0.25000000  0.25000000  0.25000000       0.250
   0.25000000 -0.25000000  0.25000000       0.250
  -0.25000000 -0.25000000  0.25000000       0.250
 
 position of ions in fractional coordinates (direct lattice) 
   0.53760571  0.40730592  0.36047229
   0.39504420  0.47992917  0.43854234
   0.55229169  0.56525403  0.44228170
   0.52798976  0.41690291  0.53893952
   0.50323328  0.46719433  0.44531786
 
 position of ions in cartesian coordinates  (Angst):
   5.38024010  4.24335347  3.56952572
   3.94602354  5.00193360  4.34260337
   5.50317920  5.88053607  4.37963186
   5.32705431  4.36777626  5.33677220
   5.03924051  4.87185561  4.40969697
 


--------------------------------------------------------------------------------------------------------


 k-point  1 :   0.2500 0.2500 0.2500  plane waves:   18610
 k-point  2 :  -0.2500 0.2500 0.2500  plane waves:   18601
 k-point  3 :   0.2500-0.2500 0.2500  plane waves:   18612
 k-point  4 :  -0.2500-0.2500 0.2500  plane waves:   18627

 maximum and minimum number of plane-waves per node :      4667     4633

 maximum number of plane-waves:     18627
 maximum index in each direction: 
   IXMAX=   16   IYMAX=   17   IZMAX=   15
   IXMIN=  -16   IYMIN=  -17   IZMIN=  -16


 parallel 3D FFT for wavefunctions:
    minimum data exchange during FFTs selected (reduces bandwidth)
 parallel 3D FFT for charge:
    minimum data exchange during FFTs selected (reduces bandwidth)


 total amount of memory used by VASP MPI-rank0    55472. kBytes
=======================================================================

   base      :      30000. kBytes
   nonl-proj :       2763. kBytes
   fftplans  :       8577. kBytes
   grid      :      13527. kBytes
   one-center:          6. kBytes
   wavefun   :        599. kBytes
 
     INWAV:  cpu time    0.0000: real time    0.0001
 Broyden mixing: mesh for mixing (old mesh)
   NGX = 33   NGY = 33   NGZ = 33
  (NGX  =140   NGY  =140   NGZ  =140)
  gives a total of  35937 points

 initial charge density was supplied:
 charge density of overlapping atoms calculated
 number of electron       8.0000000 magnetization 
 keeping initial charge density in first step


--------------------------------------------------------------------------------------------------------


 Maximum index for augmentation-charges          174 (set IRDMAX)


--------------------------------------------------------------------------------------------------------


 First call to EWALD:  gamma=   0.176
 Maximum number of real-space cells 3x 3x 3
 Maximum number of reciprocal cells 3x 3x 3

    FEWALD:  cpu time    0.0015: real time    0.0015


--------------------------------------- Iteration      1(   1)  ---------------------------------------


    POTLOK:  cpu time    0.1411: real time    0.1511
    SETDIJ:  cpu time    0.0034: real time    0.0044
     EDDAV:  cpu time    0.2000: real time    0.2250
       DOS:  cpu time    0.0003: real time    0.0009
    --------------------------------------------
      LOOP:  cpu time    0.3448: real time    0.3815

 eigenvalue-minimisations  :    96
 total energy-change (2. order) : 0.1141368E+02  (-0.2084498E+03)
 number of electron       8.0000000 magnetization 
 augmentation part        8.0000000 magnetization 

 Free energy of the ion-electron system (eV)
  ---------------------------------------------------
  alpha Z        PSCENC =         0.23644354
  Ewald energy   TEWEN  =       128.43470169
  -Hartree energ DENC   =      -244.30637077
  -exchange      EXHF   =         0.00000000
  -V(xc)+E(xc)   XCENC  =        21.97773501
  PAW double counting   =       117.05815612     -117.66307307
  entropy T*S    EENTRO =        -0.00000000
  eigenvalues    EBANDS =       -91.36566719
  atomic energy  EATOM  =       197.04175453
  Solvation  Ediel_sol  =         0.00000000
  ---------------------------------------------------
  free energy    TOTEN  =        11.41367986 eV

  energy without entropy =       11.41367986  energy(sigma->0) =       11.41367986


--------------------------------------------------------------------------------------------------------




--------------------------------------- Iteration      1(   2)  ---------------------------------------


     EDDAV:  cpu time    0.1470: real time    0.1490
       DOS:  cpu time    0.0002: real time    0.0002
    --------------------------------------------
      LOOP:  cpu time    0.1472: real time    0.1492

 eigenvalue-minimisations  :    64
 total energy-change (2. order) :-0.3492903E+02  (-0.3492903E+02)
 number of electron       8.0000000 magnetization 
 augmentation part        8.0000000 magnetization 

 Free energy of the ion-electron system (eV)
  ---------------------------------------------------
  alpha Z        PSCENC =         0.23644354
  Ewald energy   TEWEN  =       128.43470169
  -Hartree energ DENC   =      -244.30637077
  -exchange      EXHF   =         0.00000000
  -V(xc)+E(xc)   XCENC  =        21.97773501
  PAW double counting   =       117.05815612     -117.66307307
  entropy T*S    EENTRO =        -0.00000000
  eigenvalues    EBANDS =      -126.29469353
  atomic energy  EATOM  =       197.04175453
  Solvation  Ediel_sol  =         0.00000000
  ---------------------------------------------------
  free energy    TOTEN  =       -23.51534648 eV

  energy without entropy =      -23.51534648  energy(sigma->0) =      -23.51534648


--------------------------------------------------------------------------------------------------------




--------------------------------------- Iteration      1(   3)  ---------------------------------------


     EDDAV:  cpu time    0.1474: real time    0.1488
       DOS:  cpu time    0.0002: real time    0.0002
    --------------------------------------------
      LOOP:  cpu time    0.1475: real time    0.1489

 eigenvalue-minimisations  :    64
 total energy-change (2. order) :-0.3800080E+01  (-0.3800080E+01)
 number of electron       8.0000000 magnetization 
 augmentation part        8.0000000 magnetization 

 Free energy of the ion-electron system (eV)
  ---------------------------------------------------
  alpha Z        PSCENC =         0.23644354
  Ewald energy   TEWEN  =       128.43470169
  -Hartree energ DENC   =      -244.30637077
  -exchange      EXHF   =         0.00000000
  -V(xc)+E(xc)   XCENC  =        21.97773501
  PAW double counting   =       117.05815612     -117.66307307
  entropy T*S    EENTRO =        -0.00000000
  eigenvalues    EBANDS =      -130.09477397
  atomic energy  EATOM  =       197.04175453
  Solvation  Ediel_sol  =         0.00000000
  ---------------------------------------------------
  free energy    TOTEN  =       -27.31542692 eV

  energy without entropy =      -27.31542692  energy(sigma->0) =      -27.31542692


--------------------------------------------------------------------------------------------------------




--------------------------------------- Iteration      1(   4)  ---------------------------------------


     EDDAV:  cpu time    0.2429: real time    0.2524
       DOS:  cpu time    0.0002: real time    0.0002
    --------------------------------------------
      LOOP:  cpu time    0.2431: real time    0.2525

 eigenvalue-minimisations  :   128
 total energy-change (2. order) :-0.1499240E+00  (-0.1499240E+00)
 number of electron       8.0000000 magnetization 
 augmentation part        8.0000000 magnetization 

 Free energy of the ion-electron system (eV)
  ---------------------------------------------------
  alpha Z        PSCENC =         0.23644354
  Ewald energy   TEWEN  =       128.43470169
  -Hartree energ DENC   =      -244.30637077
  -exchange      EXHF   =         0.00000000
  -V(xc)+E(xc)   XCENC  =        21.97773501
  PAW double counting   =       117.05815612     -117.66307307
  entropy T*S    EENTRO =        -0.00000000
  eigenvalues    EBANDS =      -130.24469793
  atomic energy  EATOM  =       197.04175453
  Solvation  Ediel_sol  =         0.00000000
  ---------------------------------------------------
  free energy    TOTEN  =       -27.46535088 eV

  energy without entropy =      -27.46535088  energy(sigma->0) =      -27.46535088


--------------------------------------------------------------------------------------------------------




--------------------------------------- Iteration      1(   5)  ---------------------------------------


     EDDAV:  cpu time    0.1951: real time    0.1999
       DOS:  cpu time    0.0005: real time    0.0005
    CHARGE:  cpu time    0.0206: real time    0.0210
    MIXING:  cpu time    0.0040: real time    0.0041
    --------------------------------------------
      LOOP:  cpu time    0.2203: real time    0.2255

 eigenvalue-minimisations  :    96
 total energy-change (2. order) :-0.4713785E-04  (-0.4713814E-04)
 number of electron       8.0000001 magnetization 
 augmentation part        0.2231448 magnetization 

 Broyden mixing:
  rms(total) = 0.86103E+00    rms(broyden)= 0.86082E+00
  rms(prec ) = 0.12120E+01
  weight for this iteration     100.00

 Free energy of the ion-electron system (eV)
  ---------------------------------------------------
  alpha Z        PSCENC =         0.23644354
  Ewald energy   TEWEN  =       128.43470169
  -Hartree energ DENC   =      -244.30637077
  -exchange      EXHF   =         0.00000000
  -V(xc)+E(xc)   XCENC  =        21.97773501
  PAW double counting   =       117.05815612     -117.66307307
  entropy T*S    EENTRO =        -0.00000000
  eigenvalues    EBANDS =      -130.24474507
  atomic energy  EATOM  =       197.04175453
  Solvation  Ediel_sol  =         0.00000000
  ---------------------------------------------------
  free energy    TOTEN  =       -27.46539801 eV

  energy without entropy =      -27.46539801  energy(sigma->0) =      -27.46539801


--------------------------------------------------------------------------------------------------------




--------------------------------------- Iteration      1(   6)  ---------------------------------------


    POTLOK:  cpu time    0.1325: real time    0.1359
    SETDIJ:  cpu time    0.0018: real time    0.0018
    EDDIAG:  cpu time    0.0421: real time    0.0502
  RMM-DIIS:  cpu time    0.1486: real time    0.1525
    ORTHCH:  cpu time    0.0015: real time    0.0015
       DOS:  cpu time    0.0002: real time    0.0002
    CHARGE:  cpu time    0.0187: real time    0.0191
    MIXING:  cpu time    0.0045: real time    0.0058
    --------------------------------------------
      LOOP:  cpu time    0.3499: real time    0.3673

 eigenvalue-minimisations  :    64
 total energy-change (2. order) : 0.2824908E+01  (-0.5217150E+00)
 number of electron       8.0000000 magnetization 
 augmentation part        0.1966894 magnetization 

 Broyden mixing:
  rms(total) = 0.42480E+00    rms(broyden)= 0.42471E+00
  rms(prec ) = 0.54787E+00
  weight for this iteration     100.00

 eigenvalues of (default mixing * dielectric matrix)
  average eigenvalue GAMMA=   1.3010
  1.3010

 Free energy of the ion-electron system (eV)
  ---------------------------------------------------
  alpha Z        PSCENC =         0.23644354
  Ewald energy   TEWEN  =       128.43470169
  -Hartree energ DENC   =      -263.80134136
  -exchange      EXHF   =         0.00000000
  -V(xc)+E(xc)   XCENC  =        23.16123661
  PAW double counting   =       236.44449123     -237.22103730
  entropy T*S    EENTRO =        -0.00000000
  eigenvalues    EBANDS =      -108.93673865
  atomic energy  EATOM  =       197.04175453
  Solvation  Ediel_sol  =         0.00000000
  ---------------------------------------------------
  free energy    TOTEN  =       -24.64048971 eV

  energy without entropy =      -24.64048971  energy(sigma->0) =      -24.64048971


--------------------------------------------------------------------------------------------------------




--------------------------------------- Iteration      1(   7)  ---------------------------------------


    POTLOK:  cpu time    0.1328: real time    0.1360
    SETDIJ:  cpu time    0.0017: real time    0.0017
    EDDIAG:  cpu time    0.0382: real time    0.0391
  RMM-DIIS:  cpu time    0.1485: real time    0.1526
    ORTHCH:  cpu time    0.0014: real time    0.0014
       DOS:  cpu time    0.0002: real time    0.0002
    CHARGE:  cpu time    0.0177: real time    0.0180
    MIXING:  cpu time    0.0044: real time    0.0045
    --------------------------------------------
      LOOP:  cpu time    0.3447: real time    0.3534

 eigenvalue-minimisations  :    64
 total energy-change (2. order) : 0.4798163E+00  (-0.1156070E+00)
 number of electron       8.0000000 magnetization 
 augmentation part        0.1864398 magnetization 

 Broyden mixing:
  rms(total) = 0.22640E+00    rms(broyden)= 0.22635E+00
  rms(prec ) = 0.27281E+00
  weight for this iteration     100.00

 eigenvalues of (default mixing * dielectric matrix)
  average eigenvalue GAMMA=   1.8408
  1.4502  2.2314

 Free energy of the ion-electron system (eV)
  ---------------------------------------------------
  alpha Z        PSCENC =         0.23644354
  Ewald energy   TEWEN  =       128.43470169
  -Hartree energ DENC   =      -275.24499808
  -exchange      EXHF   =         0.00000000
  -V(xc)+E(xc)   XCENC  =        24.00390611
  PAW double counting   =       359.69339974     -360.50741151
  entropy T*S    EENTRO =        -0.00000000
  eigenvalues    EBANDS =       -97.81846944
  atomic energy  EATOM  =       197.04175453
  Solvation  Ediel_sol  =         0.00000000
  ---------------------------------------------------
  free energy    TOTEN  =       -24.16067342 eV

  energy without entropy =      -24.16067342  energy(sigma->0) =      -24.16067342


--------------------------------------------------------------------------------------------------------




--------------------------------------- Iteration      1(   8)  ---------------------------------------


    POTLOK:  cpu time    0.1328: real time    0.1363
    SETDIJ:  cpu time    0.0017: real time    0.0017
    EDDIAG:  cpu time    0.0382: real time    0.0391
  RMM-DIIS:  cpu time    0.1515: real time    0.1552
    ORTHCH:  cpu time    0.0029: real time    0.0030
       DOS:  cpu time    0.0002: real time    0.0002
    CHARGE:  cpu time    0.0176: real time    0.0179
    MIXING:  cpu time    0.0043: real time    0.0043
    --------------------------------------------
      LOOP:  cpu time    0.3491: real time    0.3578

 eigenvalue-minimisations  :    64
 total energy-change (2. order) : 0.1453136E+00  (-0.1625405E-01)
 number of electron       8.0000000 magnetization 
 augmentation part        0.1850787 magnetization 

 Broyden mixing:
  rms(total) = 0.22702E-01    rms(broyden)= 0.22679E-01
  rms(prec ) = 0.51909E-01
  weight for this iteration     100.00

 eigenvalues of (default mixing * dielectric matrix)
  average eigenvalue GAMMA=   1.5451
  2.2481  0.9867  1.4003

 Free energy of the ion-electron system (eV)
  ---------------------------------------------------
  alpha Z        PSCENC =         0.23644354
  Ewald energy   TEWEN  =       128.43470169
  -Hartree energ DENC   =      -280.64594245
  -exchange      EXHF   =         0.00000000
  -V(xc)+E(xc)   XCENC  =        24.53938163
  PAW double counting   =       466.35553122     -467.13785719
  entropy T*S    EENTRO =        -0.00000000
  eigenvalues    EBANDS =       -92.83937275
  atomic energy  EATOM  =       197.04175453
  Solvation  Ediel_sol  =         0.00000000
  ---------------------------------------------------
  free energy    TOTEN  =       -24.01535979 eV

  energy without entropy =      -24.01535979  energy(sigma->0) =      -24.01535979


--------------------------------------------------------------------------------------------------------




--------------------------------------- Iteration      1(   9)  ---------------------------------------


    POTLOK:  cpu time    0.1354: real time    0.1381
    SETDIJ:  cpu time    0.0016: real time    0.0016
    EDDIAG:  cpu time    0.0381: real time    0.0390
  RMM-DIIS:  cpu time    0.1504: real time    0.1557
    ORTHCH:  cpu time    0.0014: real time    0.0014
       DOS:  cpu time    0.0002: real time    0.0002
    CHARGE:  cpu time    0.0176: real time    0.0181
    MIXING:  cpu time    0.0047: real time    0.0057
    --------------------------------------------
      LOOP:  cpu time    0.3495: real time    0.3599

 eigenvalue-minimisations  :    64
 total energy-change (2. order) : 0.5610441E-02  (-0.1088759E-02)
 number of electron       8.0000000 magnetization 
 augmentation part        0.1845222 magnetization 

 Broyden mixing:
  rms(total) = 0.19375E-01    rms(broyden)= 0.19371E-01
  rms(prec ) = 0.39793E-01
  weight for this iteration     100.00

 eigenvalues of (default mixing * dielectric matrix)
  average eigenvalue GAMMA=   2.0905
  1.0030  1.3682  2.9713  3.0193

 Free energy of the ion-electron system (eV)
  ---------------------------------------------------
  alpha Z        PSCENC =         0.23644354
  Ewald energy   TEWEN  =       128.43470169
  -Hartree energ DENC   =      -281.88570844
  -exchange      EXHF   =         0.00000000
  -V(xc)+E(xc)   XCENC  =        24.60731033
  PAW double counting   =       469.33862091     -470.12366305
  entropy T*S    EENTRO =        -0.00000000
  eigenvalues    EBANDS =       -91.65920886
  atomic energy  EATOM  =       197.04175453
  Solvation  Ediel_sol  =         0.00000000
  ---------------------------------------------------
  free energy    TOTEN  =       -24.00974935 eV

  energy without entropy =      -24.00974935  energy(sigma->0) =      -24.00974935


--------------------------------------------------------------------------------------------------------




--------------------------------------- Iteration      1(  10)  ---------------------------------------


    POTLOK:  cpu time    0.1282: real time    0.1316
    SETDIJ:  cpu time    0.0017: real time    0.0017
    EDDIAG:  cpu time    0.0378: real time    0.0387
  RMM-DIIS:  cpu time    0.1521: real time    0.1561
    ORTHCH:  cpu time    0.0018: real time    0.0018
       DOS:  cpu time    0.0002: real time    0.0002
    CHARGE:  cpu time    0.0184: real time    0.0189
    MIXING:  cpu time    0.0048: real time    0.0049
    --------------------------------------------
      LOOP:  cpu time    0.3451: real time    0.3539

 eigenvalue-minimisations  :    64
 total energy-change (2. order) : 0.6360494E-02  (-0.2448063E-02)
 number of electron       8.0000000 magnetization 
 augmentation part        0.1834845 magnetization 

 Broyden mixing:
  rms(total) = 0.27516E-01    rms(broyden)= 0.27515E-01
  rms(prec ) = 0.34997E-01
  weight for this iteration     100.00

 eigenvalues of (default mixing * dielectric matrix)
  average eigenvalue GAMMA=   1.7851
  3.0747  2.4189  1.2252  1.2252  0.9814

 Free energy of the ion-electron system (eV)
  ---------------------------------------------------
  alpha Z        PSCENC =         0.23644354
  Ewald energy   TEWEN  =       128.43470169
  -Hartree energ DENC   =      -284.07576820
  -exchange      EXHF   =         0.00000000
  -V(xc)+E(xc)   XCENC  =        24.67781042
  PAW double counting   =       453.83700198     -454.62553490
  entropy T*S    EENTRO =        -0.00000000
  eigenvalues    EBANDS =       -89.52979791
  atomic energy  EATOM  =       197.04175453
  Solvation  Ediel_sol  =         0.00000000
  ---------------------------------------------------
  free energy    TOTEN  =       -24.00338886 eV

  energy without entropy =      -24.00338886  energy(sigma->0) =      -24.00338886


--------------------------------------------------------------------------------------------------------




--------------------------------------- Iteration      1(  11)  ---------------------------------------


    POTLOK:  cpu time    0.1289: real time    0.1323
    SETDIJ:  cpu time    0.0027: real time    0.0027
    EDDIAG:  cpu time    0.0374: real time    0.0382
  RMM-DIIS:  cpu time    0.1491: real time    0.1529
    ORTHCH:  cpu time    0.0015: real time    0.0016
       DOS:  cpu time    0.0002: real time    0.0002
    CHARGE:  cpu time    0.0186: real time    0.0190
    MIXING:  cpu time    0.0047: real time    0.0048
    --------------------------------------------
      LOOP:  cpu time    0.3431: real time    0.3516

 eigenvalue-minimisations  :    64
 total energy-change (2. order) :-0.7101602E-03  (-0.8042804E-03)
 number of electron       8.0000000 magnetization 
 augmentation part        0.1838453 magnetization 

 Broyden mixing:
  rms(total) = 0.82472E-02    rms(broyden)= 0.82440E-02
  rms(prec ) = 0.14008E-01
  weight for this iteration     100.00

 eigenvalues of (default mixing * dielectric matrix)
  average eigenvalue GAMMA=   2.2936
  4.9226  3.1087  2.4297  1.2764  1.0122  1.0122

 Free energy of the ion-electron system (eV)
  ---------------------------------------------------
  alpha Z        PSCENC =         0.23644354
  Ewald energy   TEWEN  =       128.43470169
  -Hartree energ DENC   =      -283.97177735
  -exchange      EXHF   =         0.00000000
  -V(xc)+E(xc)   XCENC  =        24.69199741
  PAW double counting   =       462.78380247     -463.56485955
  entropy T*S    EENTRO =        -0.00000000
  eigenvalues    EBANDS =       -89.65616176
  atomic energy  EATOM  =       197.04175453
  Solvation  Ediel_sol  =         0.00000000
  ---------------------------------------------------
  free energy    TOTEN  =       -24.00409902 eV

  energy without entropy =      -24.00409902  energy(sigma->0) =      -24.00409902


--------------------------------------------------------------------------------------------------------




--------------------------------------- Iteration      1(  12)  ---------------------------------------


    POTLOK:  cpu time    0.1224: real time    0.1261
    SETDIJ:  cpu time    0.0016: real time    0.0016
    EDDIAG:  cpu time    0.0376: real time    0.0386
  RMM-DIIS:  cpu time    0.1507: real time    0.1544
    ORTHCH:  cpu time    0.0017: real time    0.0017
       DOS:  cpu time    0.0002: real time    0.0002
    CHARGE:  cpu time    0.0173: real time    0.0179
    MIXING:  cpu time    0.0048: real time    0.0049
    --------------------------------------------
      LOOP:  cpu time    0.3365: real time    0.3455

 eigenvalue-minimisations  :    64
 total energy-change (2. order) :-0.9583362E-02  (-0.3593877E-03)
 number of electron       8.0000000 magnetization 
 augmentation part        0.1840679 magnetization 

 Broyden mixing:
  rms(total) = 0.12563E-01    rms(broyden)= 0.12561E-01
  rms(prec ) = 0.16352E-01
  weight for this iteration     100.00

 eigenvalues of (default mixing * dielectric matrix)
  average eigenvalue GAMMA=   2.0236
  4.8707  2.9592  2.4291  1.2312  1.0084  1.0084  0.6582

 Free energy of the ion-electron system (eV)
  ---------------------------------------------------
  alpha Z        PSCENC =         0.23644354
  Ewald energy   TEWEN  =       128.43470169
  -Hartree energ DENC   =      -284.17773829
  -exchange      EXHF   =         0.00000000
  -V(xc)+E(xc)   XCENC  =        24.68385035
  PAW double counting   =       459.78500573     -460.56490763
  entropy T*S    EENTRO =        -0.00000000
  eigenvalues    EBANDS =       -89.45279230
  atomic energy  EATOM  =       197.04175453
  Solvation  Ediel_sol  =         0.00000000
  ---------------------------------------------------
  free energy    TOTEN  =       -24.01368238 eV

  energy without entropy =      -24.01368238  energy(sigma->0) =      -24.01368238


--------------------------------------------------------------------------------------------------------




--------------------------------------- Iteration      1(  13)  ---------------------------------------


    POTLOK:  cpu time    0.1207: real time    0.1242
    SETDIJ:  cpu time    0.0017: real time    0.0017
    EDDIAG:  cpu time    0.0383: real time    0.0392
  RMM-DIIS:  cpu time    0.1491: real time    0.1532
    ORTHCH:  cpu time    0.0017: real time    0.0017
       DOS:  cpu time    0.0002: real time    0.0002
    CHARGE:  cpu time    0.0176: real time    0.0182
    MIXING:  cpu time    0.0050: real time    0.0051
    --------------------------------------------
      LOOP:  cpu time    0.3344: real time    0.3435

 eigenvalue-minimisations  :    64
 total energy-change (2. order) :-0.4315495E-03  (-0.9152543E-04)
 number of electron       8.0000000 magnetization 
 augmentation part        0.1838379 magnetization 

 Broyden mixing:
  rms(total) = 0.52732E-02    rms(broyden)= 0.52731E-02
  rms(prec ) = 0.71087E-02
  weight for this iteration     100.00

 eigenvalues of (default mixing * dielectric matrix)
  average eigenvalue GAMMA=   2.4801
  6.3250  4.2695  2.5596  2.4033  1.2062  1.2062  0.9998  0.8709

 Free energy of the ion-electron system (eV)
  ---------------------------------------------------
  alpha Z        PSCENC =         0.23644354
  Ewald energy   TEWEN  =       128.43470169
  -Hartree energ DENC   =      -284.35729455
  -exchange      EXHF   =         0.00000000
  -V(xc)+E(xc)   XCENC  =        24.68896259
  PAW double counting   =       459.58414687     -460.36637009
  entropy T*S    EENTRO =        -0.00000000
  eigenvalues    EBANDS =       -89.27645850
  atomic energy  EATOM  =       197.04175453
  Solvation  Ediel_sol  =         0.00000000
  ---------------------------------------------------
  free energy    TOTEN  =       -24.01411393 eV

  energy without entropy =      -24.01411393  energy(sigma->0) =      -24.01411393


--------------------------------------------------------------------------------------------------------




--------------------------------------- Iteration      1(  14)  ---------------------------------------


    POTLOK:  cpu time    0.1214: real time    0.1245
    SETDIJ:  cpu time    0.0016: real time    0.0016
    EDDIAG:  cpu time    0.0376: real time    0.0385
  RMM-DIIS:  cpu time    0.1521: real time    0.1557
    ORTHCH:  cpu time    0.0013: real time    0.0019
       DOS:  cpu time    0.0002: real time    0.0002
    CHARGE:  cpu time    0.0177: real time    0.0181
    MIXING:  cpu time    0.0052: real time    0.0053
    --------------------------------------------
      LOOP:  cpu time    0.3371: real time    0.3457

 eigenvalue-minimisations  :    64
 total energy-change (2. order) :-0.2944424E-02  (-0.1790090E-03)
 number of electron       8.0000000 magnetization 
 augmentation part        0.1836592 magnetization 

 Broyden mixing:
  rms(total) = 0.42397E-02    rms(broyden)= 0.42378E-02
  rms(prec ) = 0.54394E-02
  weight for this iteration     100.00

 eigenvalues of (default mixing * dielectric matrix)
  average eigenvalue GAMMA=   2.3328
  6.5670  4.2151  2.5633  2.4087  1.1555  1.1555  1.0399  0.9452  0.9452

 Free energy of the ion-electron system (eV)
  ---------------------------------------------------
  alpha Z        PSCENC =         0.23644354
  Ewald energy   TEWEN  =       128.43470169
  -Hartree energ DENC   =      -284.39126057
  -exchange      EXHF   =         0.00000000
  -V(xc)+E(xc)   XCENC  =        24.67991785
  PAW double counting   =       458.77544798     -459.55949758
  entropy T*S    EENTRO =        -0.00000000
  eigenvalues    EBANDS =       -89.23456579
  atomic energy  EATOM  =       197.04175453
  Solvation  Ediel_sol  =         0.00000000
  ---------------------------------------------------
  free energy    TOTEN  =       -24.01705835 eV

  energy without entropy =      -24.01705835  energy(sigma->0) =      -24.01705835


--------------------------------------------------------------------------------------------------------




--------------------------------------- Iteration      1(  15)  ---------------------------------------


    POTLOK:  cpu time    0.1202: real time    0.1235
    SETDIJ:  cpu time    0.0016: real time    0.0016
    EDDIAG:  cpu time    0.0376: real time    0.0385
  RMM-DIIS:  cpu time    0.1525: real time    0.1558
    ORTHCH:  cpu time    0.0020: real time    0.0021
       DOS:  cpu time    0.0002: real time    0.0002
    CHARGE:  cpu time    0.0188: real time    0.0193
    MIXING:  cpu time    0.0055: real time    0.0056
    --------------------------------------------
      LOOP:  cpu time    0.3385: real time    0.3466

 eigenvalue-minimisations  :    64
 total energy-change (2. order) :-0.1772091E-03  (-0.6960432E-05)
 number of electron       8.0000000 magnetization 
 augmentation part        0.1836450 magnetization 

 Broyden mixing:
  rms(total) = 0.19928E-02    rms(broyden)= 0.19927E-02
  rms(prec ) = 0.25837E-02
  weight for this iteration     100.00

 eigenvalues of (default mixing * dielectric matrix)
  average eigenvalue GAMMA=   2.5907
  7.7209  4.9749  3.0617  2.5913  2.1539  1.2613  1.2613  1.0100  0.9716  0.9004

 Free energy of the ion-electron system (eV)
  ---------------------------------------------------
  alpha Z        PSCENC =         0.23644354
  Ewald energy   TEWEN  =       128.43470169
  -Hartree energ DENC   =      -284.35280153
  -exchange      EXHF   =         0.00000000
  -V(xc)+E(xc)   XCENC  =        24.67896868
  PAW double counting   =       458.98548602     -459.76864469
  entropy T*S    EENTRO =        -0.00000000
  eigenvalues    EBANDS =       -89.27314380
  atomic energy  EATOM  =       197.04175453
  Solvation  Ediel_sol  =         0.00000000
  ---------------------------------------------------
  free energy    TOTEN  =       -24.01723556 eV

  energy without entropy =      -24.01723556  energy(sigma->0) =      -24.01723556


--------------------------------------------------------------------------------------------------------




--------------------------------------- Iteration      1(  16)  ---------------------------------------


    POTLOK:  cpu time    0.1243: real time    0.1272
    SETDIJ:  cpu time    0.0018: real time    0.0018
    EDDIAG:  cpu time    0.0389: real time    0.0399
  RMM-DIIS:  cpu time    0.1496: real time    0.1531
    ORTHCH:  cpu time    0.0014: real time    0.0014
       DOS:  cpu time    0.0002: real time    0.0002
    CHARGE:  cpu time    0.0177: real time    0.0181
    MIXING:  cpu time    0.0079: real time    0.0080
    --------------------------------------------
      LOOP:  cpu time    0.3417: real time    0.3497

 eigenvalue-minimisations  :    64
 total energy-change (2. order) :-0.2352330E-03  (-0.2682753E-04)
 number of electron       8.0000000 magnetization 
 augmentation part        0.1837448 magnetization 

 Broyden mixing:
  rms(total) = 0.18084E-02    rms(broyden)= 0.18077E-02
  rms(prec ) = 0.23726E-02
  weight for this iteration     100.00

 eigenvalues of (default mixing * dielectric matrix)
  average eigenvalue GAMMA=   2.5309
  8.0111  4.9608  3.7151  2.4097  2.3958  1.2260  1.2260  1.0076  1.0076  0.9012
  0.9787

 Free energy of the ion-electron system (eV)
  ---------------------------------------------------
  alpha Z        PSCENC =         0.23644354
  Ewald energy   TEWEN  =       128.43470169
  -Hartree energ DENC   =      -284.30342461
  -exchange      EXHF   =         0.00000000
  -V(xc)+E(xc)   XCENC  =        24.67780020
  PAW double counting   =       459.08919177     -459.87145501
  entropy T*S    EENTRO =        -0.00000000
  eigenvalues    EBANDS =       -89.32248290
  atomic energy  EATOM  =       197.04175453
  Solvation  Ediel_sol  =         0.00000000
  ---------------------------------------------------
  free energy    TOTEN  =       -24.01747079 eV

  energy without entropy =      -24.01747079  energy(sigma->0) =      -24.01747079


--------------------------------------------------------------------------------------------------------




--------------------------------------- Iteration      1(  17)  ---------------------------------------


    POTLOK:  cpu time    0.1232: real time    0.1277
    SETDIJ:  cpu time    0.0016: real time    0.0016
    EDDIAG:  cpu time    0.0386: real time    0.0395
  RMM-DIIS:  cpu time    0.1501: real time    0.1545
    ORTHCH:  cpu time    0.0014: real time    0.0014
       DOS:  cpu time    0.0002: real time    0.0002
    CHARGE:  cpu time    0.0183: real time    0.0188
    MIXING:  cpu time    0.0059: real time    0.0061
    --------------------------------------------
      LOOP:  cpu time    0.3393: real time    0.3499

 eigenvalue-minimisations  :    64
 total energy-change (2. order) :-0.1110616E-04  (-0.3944747E-05)
 number of electron       8.0000000 magnetization 
 augmentation part        0.1837065 magnetization 

 Broyden mixing:
  rms(total) = 0.43918E-03    rms(broyden)= 0.43916E-03
  rms(prec ) = 0.53250E-03
  weight for this iteration     100.00

 eigenvalues of (default mixing * dielectric matrix)
  average eigenvalue GAMMA=   2.6192
  8.5048  5.2625  3.9605  2.7716  2.4366  1.9763  1.3163  1.3163  1.0257  1.0257
  0.9457  0.8883

 Free energy of the ion-electron system (eV)
  ---------------------------------------------------
  alpha Z        PSCENC =         0.23644354
  Ewald energy   TEWEN  =       128.43470169
  -Hartree energ DENC   =      -284.35528414
  -exchange      EXHF   =         0.00000000
  -V(xc)+E(xc)   XCENC  =        24.68016633
  PAW double counting   =       459.09169408     -459.87444849
  entropy T*S    EENTRO =        -0.00000000
  eigenvalues    EBANDS =       -89.27250944
  atomic energy  EATOM  =       197.04175453
  Solvation  Ediel_sol  =         0.00000000
  ---------------------------------------------------
  free energy    TOTEN  =       -24.01748190 eV

  energy without entropy =      -24.01748190  energy(sigma->0) =      -24.01748190


--------------------------------------------------------------------------------------------------------




--------------------------------------- Iteration      1(  18)  ---------------------------------------


    POTLOK:  cpu time    0.1315: real time    0.1349
    SETDIJ:  cpu time    0.0016: real time    0.0017
    EDDIAG:  cpu time    0.0385: real time    0.0393
  RMM-DIIS:  cpu time    0.1555: real time    0.1598
    ORTHCH:  cpu time    0.0014: real time    0.0014
       DOS:  cpu time    0.0002: real time    0.0002
    CHARGE:  cpu time    0.0178: real time    0.0181
    MIXING:  cpu time    0.0062: real time    0.0063
    --------------------------------------------
      LOOP:  cpu time    0.3526: real time    0.3617

 eigenvalue-minimisations  :    64
 total energy-change (2. order) :-0.1739875E-04  (-0.1135962E-05)
 number of electron       8.0000000 magnetization 
 augmentation part        0.1836840 magnetization 

 Broyden mixing:
  rms(total) = 0.30744E-03    rms(broyden)= 0.30717E-03
  rms(prec ) = 0.40583E-03
  weight for this iteration     100.00

 eigenvalues of (default mixing * dielectric matrix)
  average eigenvalue GAMMA=   2.5597
  8.5945  5.3763  3.9495  3.0410  2.4927  2.2150  1.2333  1.2333  0.8929  0.9777
  0.9777  1.1464  1.1464

 Free energy of the ion-electron system (eV)
  ---------------------------------------------------
  alpha Z        PSCENC =         0.23644354
  Ewald energy   TEWEN  =       128.43470169
  -Hartree energ DENC   =      -284.35551915
  -exchange      EXHF   =         0.00000000
  -V(xc)+E(xc)   XCENC  =        24.67968663
  PAW double counting   =       458.94836673     -459.73125050
  entropy T*S    EENTRO =        -0.00000000
  eigenvalues    EBANDS =       -89.27168277
  atomic energy  EATOM  =       197.04175453
  Solvation  Ediel_sol  =         0.00000000
  ---------------------------------------------------
  free energy    TOTEN  =       -24.01749930 eV

  energy without entropy =      -24.01749930  energy(sigma->0) =      -24.01749930


--------------------------------------------------------------------------------------------------------




--------------------------------------- Iteration      1(  19)  ---------------------------------------


    POTLOK:  cpu time    0.1280: real time    0.1310
    SETDIJ:  cpu time    0.0017: real time    0.0017
    EDDIAG:  cpu time    0.0387: real time    0.0396
  RMM-DIIS:  cpu time    0.1232: real time    0.1263
    ORTHCH:  cpu time    0.0014: real time    0.0015
       DOS:  cpu time    0.0002: real time    0.0002
    CHARGE:  cpu time    0.0175: real time    0.0181
    MIXING:  cpu time    0.0062: real time    0.0063
    --------------------------------------------
      LOOP:  cpu time    0.3169: real time    0.3248

 eigenvalue-minimisations  :    48
 total energy-change (2. order) :-0.1659033E-05  (-0.3923788E-07)
 number of electron       8.0000000 magnetization 
 augmentation part        0.1836837 magnetization 

 Broyden mixing:
  rms(total) = 0.27383E-03    rms(broyden)= 0.27381E-03
  rms(prec ) = 0.35412E-03
  weight for this iteration     100.00

 eigenvalues of (default mixing * dielectric matrix)
  average eigenvalue GAMMA=   2.6154
  8.6176  5.6648  3.9163  3.9163  2.5703  2.3933  2.0139  1.3141  1.3141  1.0366
  1.0366  0.8893  0.9665  0.9665

 Free energy of the ion-electron system (eV)
  ---------------------------------------------------
  alpha Z        PSCENC =         0.23644354
  Ewald energy   TEWEN  =       128.43470169
  -Hartree energ DENC   =      -284.35202413
  -exchange      EXHF   =         0.00000000
  -V(xc)+E(xc)   XCENC  =        24.67948398
  PAW double counting   =       458.94498830     -459.72783944
  entropy T*S    EENTRO =        -0.00000000
  eigenvalues    EBANDS =       -89.27500942
  atomic energy  EATOM  =       197.04175453
  Solvation  Ediel_sol  =         0.00000000
  ---------------------------------------------------
  free energy    TOTEN  =       -24.01750096 eV

  energy without entropy =      -24.01750096  energy(sigma->0) =      -24.01750096


--------------------------------------------------------------------------------------------------------




--------------------------------------- Iteration      1(  20)  ---------------------------------------


    POTLOK:  cpu time    0.1296: real time    0.1319
    SETDIJ:  cpu time    0.0017: real time    0.0017
    EDDIAG:  cpu time    0.0389: real time    0.0397
  RMM-DIIS:  cpu time    0.1208: real time    0.1247
    ORTHCH:  cpu time    0.0014: real time    0.0014
       DOS:  cpu time    0.0002: real time    0.0002
    CHARGE:  cpu time    0.0177: real time    0.0181
    MIXING:  cpu time    0.0063: real time    0.0064
    --------------------------------------------
      LOOP:  cpu time    0.3165: real time    0.3242

 eigenvalue-minimisations  :    48
 total energy-change (2. order) :-0.1499672E-05  (-0.2120474E-06)
 number of electron       8.0000000 magnetization 
 augmentation part        0.1836914 magnetization 

 Broyden mixing:
  rms(total) = 0.68605E-04    rms(broyden)= 0.68574E-04
  rms(prec ) = 0.98088E-04
  weight for this iteration     100.00

 eigenvalues of (default mixing * dielectric matrix)
  average eigenvalue GAMMA=   2.5168
  8.6160  5.7465  3.9616  3.9616  2.5075  2.5075  2.0039  1.3133  1.3133  0.9975
  0.9975  0.8710  0.9604  0.9604  1.0344

 Free energy of the ion-electron system (eV)
  ---------------------------------------------------
  alpha Z        PSCENC =         0.23644354
  Ewald energy   TEWEN  =       128.43470169
  -Hartree energ DENC   =      -284.34372757
  -exchange      EXHF   =         0.00000000
  -V(xc)+E(xc)   XCENC  =        24.67917542
  PAW double counting   =       458.98290522     -459.76563684
  entropy T*S    EENTRO =        -0.00000000
  eigenvalues    EBANDS =       -89.28311844
  atomic energy  EATOM  =       197.04175453
  Solvation  Ediel_sol  =         0.00000000
  ---------------------------------------------------
  free energy    TOTEN  =       -24.01750246 eV

  energy without entropy =      -24.01750246  energy(sigma->0) =      -24.01750246


--------------------------------------------------------------------------------------------------------




--------------------------------------- Iteration      1(  21)  ---------------------------------------


    POTLOK:  cpu time    0.1283: real time    0.1308
    SETDIJ:  cpu time    0.0020: real time    0.0020
    EDDIAG:  cpu time    0.0380: real time    0.0389
  RMM-DIIS:  cpu time    0.1200: real time    0.1233
    ORTHCH:  cpu time    0.0014: real time    0.0014
       DOS:  cpu time    0.0002: real time    0.0002
    --------------------------------------------
      LOOP:  cpu time    0.2898: real time    0.2966

 eigenvalue-minimisations  :    48
 total energy-change (2. order) :-0.4092980E-06  (-0.2320222E-07)
 number of electron       8.0000000 magnetization 
 augmentation part        0.1836914 magnetization 

 Free energy of the ion-electron system (eV)
  ---------------------------------------------------
  alpha Z        PSCENC =         0.23644354
  Ewald energy   TEWEN  =       128.43470169
  -Hartree energ DENC   =      -284.34478247
  -exchange      EXHF   =         0.00000000
  -V(xc)+E(xc)   XCENC  =        24.67923130
  PAW double counting   =       458.98006648     -459.76280732
  entropy T*S    EENTRO =        -0.00000000
  eigenvalues    EBANDS =       -89.28211061
  atomic energy  EATOM  =       197.04175453
  Solvation  Ediel_sol  =         0.00000000
  ---------------------------------------------------
  free energy    TOTEN  =       -24.01750287 eV

  energy without entropy =      -24.01750287  energy(sigma->0) =      -24.01750287


--------------------------------------------------------------------------------------------------------




 average (electrostatic) potential at core
  the test charge radii are     0.5201  0.6991
  (the norm of the test charge is              1.0000)
       1 -41.4549       2 -41.4569       3 -41.4033       4 -41.5292       5 -58.0001
 
 
 
 E-fermi :  -8.1394     XC(G=0):  -0.6856     alpha+bet : -0.2056


 k-point     1 :       0.2500    0.2500    0.2500
  band No.  band energies     occupation 
      1     -16.8428      2.00000
      2      -9.4194      2.00000
      3      -9.2845      2.00000
      4      -9.0943      2.00000
      5      -0.3251      0.00000
      6       0.5450      0.00000
      7       0.6564      0.00000
      8       0.7075      0.00000

 k-point     2 :      -0.2500    0.2500    0.2500
  band No.  band energies     occupation 
      1     -16.8428      2.00000
      2      -9.4195      2.00000
      3      -9.2844      2.00000
      4      -9.0942      2.00000
      5      -0.3255      0.00000
      6       0.5505      0.00000
      7       0.6657      0.00000
      8       0.6911      0.00000

 k-point     3 :       0.2500   -0.2500    0.2500
  band No.  band energies     occupation 
      1     -16.8428      2.00000
      2      -9.4195      2.00000
      3      -9.2845      2.00000
      4      -9.0943      2.00000
      5      -0.3279      0.00000
      6       0.5486      0.00000
      7       0.6743      0.00000
      8       0.7030      0.00000

 k-point     4 :      -0.2500   -0.2500    0.2500
  band No.  band energies     occupation 
      1     -16.8428      2.00000
      2      -9.4195      2.00000
      3      -9.2845      2.00000
      4      -9.0943      2.00000
      5      -0.3178      0.00000
      6       0.5366      0.00000
      7       0.6406      0.00000
      8       0.6769      0.00000


--------------------------------------------------------------------------------------------------------


 soft charge-density along one line, spin component           1
         0         1         2         3         4         5         6         7         8         9
 total charge-density along one line
 
 pseudopotential strength for first ion, spin component:           1
 -2.341  -4.033  -0.001  -0.001   0.001
 -4.033  -6.864  -0.003  -0.004   0.002
 -0.001  -0.003  -0.338   0.002  -0.001
 -0.001  -0.004   0.002  -0.336  -0.001
  0.001   0.002  -0.001  -0.001  -0.339
 total augmentation occupancy for first ion, spin component:           1
  3.522  -0.635   0.242   0.322  -0.130
 -0.635   0.128  -0.044  -0.060   0.024
  0.242  -0.044   0.022   0.018  -0.008
  0.322  -0.060   0.018   0.033  -0.010
 -0.130   0.024  -0.008  -0.010   0.013


------------------------ aborting loop because EDIFF is reached ----------------------------------------


    CHARGE:  cpu time    0.0179: real time    0.0183
    FORLOC:  cpu time    0.0112: real time    0.0113
    FORNL :  cpu time    0.0178: real time    0.0179
    STRESS:  cpu time    0.1409: real time    0.1429
    FORCOR:  cpu time    0.1261: real time    0.1289
    FORHAR:  cpu time    0.0394: real time    0.0401
    MIXING:  cpu time    0.0063: real time    0.0064
    OFIELD:  cpu time    0.0001: real time    0.0000

  FORCE on cell =-STRESS in cart. coord.  units (eV):
  Direction    XX          YY          ZZ          XY          YZ          ZX
  --------------------------------------------------------------------------------------
  Alpha Z     0.23644     0.23644     0.23644
  Ewald      42.47729    42.48591    43.47148    -2.61034     0.79076     2.66679
  Hartree    95.00594    93.00162    96.34238    -0.89490     0.49141     0.97375
  E(xc)     -27.14647   -27.12800   -27.15432    -0.01048     0.00478     0.01146
  Local    -196.46673  -194.01855  -198.80320     3.04757    -1.25917    -3.20911
  n-local   -15.75196   -15.73079   -15.78372     0.01131     0.01363    -0.00320
  augment     0.11979     0.11673     0.11904     0.00343     0.00023    -0.00313
  Kinetic   100.90326   100.00644   101.30423     0.49690    -0.22488    -0.54475
  Fock        0.00000     0.00000     0.00000     0.00000     0.00000     0.00000
  -------------------------------------------------------------------------------------
  Total      -0.62243    -1.03018    -0.26767     0.04350    -0.18324    -0.10818
  in kB      -0.97334    -1.61097    -0.41858     0.06802    -0.28654    -0.16917
  external pressure =       -1.00 kB  Pullay stress =        0.00 kB

  kinetic pressure (ideal gas correction) =      0.00 kB
  total pressure  =     -1.00 kB
  Total+kin.    -0.973      -1.611      -0.419       0.068      -0.287      -0.169

 VOLUME and BASIS-vectors are now :
 -----------------------------------------------------------------------------
  energy-cutoff  :      400.00
  volume of cell :     1024.56
      direct lattice vectors                 reciprocal lattice vectors
    10.054214242  0.000000000  0.000000000     0.099460781  0.002810764 -0.002645795
    -0.290819522 10.290843753  0.000000000     0.000000000  0.097173762 -0.001411028
     0.259353060  0.143788898  9.902358206     0.000000000  0.000000000  0.100986046

  length of vectors
    10.054214242 10.294952216  9.906797530     0.099535660  0.097184006  0.100986046


 FORCES acting on ions
    electron-ion (+dipol)            ewald-force                    non-local-force                 convergence-correction
 -----------------------------------------------------------------------------------------------
   -.162E+02 0.299E+02 0.399E+02   0.179E+02 -.327E+02 -.440E+02   -.166E+01 0.311E+01 0.410E+01   0.146E-03 -.297E-03 -.372E-03
   0.520E+02 -.620E+01 0.318E+01   -.572E+02 0.672E+01 -.341E+01   0.536E+01 -.665E+00 0.354E+00   -.493E-03 0.585E-04 -.317E-04
   -.218E+02 -.474E+02 0.142E+01   0.239E+02 0.518E+02 -.163E+01   -.219E+01 -.483E+01 0.123E+00   0.200E-03 0.468E-03 -.134E-04
   -.139E+02 0.244E+02 -.448E+02   0.153E+02 -.269E+02 0.497E+02   -.149E+01 0.257E+01 -.468E+01   0.126E-03 -.242E-03 0.416E-03
   -.103E+00 -.980E+00 0.498E+00   0.110E+00 0.117E+01 -.623E+00   0.958E-02 0.107E+00 -.125E+00   -.561E-04 -.182E-04 -.113E-04
 -----------------------------------------------------------------------------------------------
   -.294E-01 -.298E+00 0.236E+00   0.178E-14 -.711E-14 -.711E-14   0.291E-01 0.298E+00 -.236E+00   -.769E-04 -.314E-04 -.133E-04
 
 
 POSITION                                       TOTAL-FORCE (eV/Angst)
 -----------------------------------------------------------------------------------
      5.38024      4.24335      3.56953        -0.015693      0.273391      0.045482
      3.94602      5.00193      4.34260         0.168919     -0.140480      0.122008
      5.50318      5.88054      4.37963        -0.048720     -0.451769     -0.086468
      5.32705      4.36778      5.33677        -0.121379      0.023472      0.168733
      5.03924      4.87186      4.40970         0.016479      0.295062     -0.249752
 -----------------------------------------------------------------------------------
    total drift:                               -0.000394     -0.000325      0.000003


--------------------------------------------------------------------------------------------------------



  FREE ENERGIE OF THE ION-ELECTRON SYSTEM (eV)
  ---------------------------------------------------
  free  energy   TOTEN  =       -24.01750287 eV

  energy  without entropy=      -24.01750287  energy(sigma->0) =      -24.01750287
 


--------------------------------------------------------------------------------------------------------


    POTLOK:  cpu time    0.1289: real time    0.1317


--------------------------------------------------------------------------------------------------------


 stress matrix after NEB project (eV)
     -0.62243      0.04350     -0.10818
      0.04350     -1.03018     -0.18324
     -0.10818     -0.18324     -0.26767
  FORCES: max atom, RMS     0.462542    0.330944
  FORCE total and by dimension    0.740014    0.451769
  Stress total and by dimension    1.270708    1.030185
           RANDOM_SEED =         581354866                0                0
           RANDOM_SEED =         581354866               30                0
   IONSTEP:  cpu time    0.0028: real time    0.0060

  ENERGY OF THE ELECTRON-ION-THERMOSTAT SYSTEM (eV)
  ---------------------------------------------------
% ion-electron   TOTEN  =       -24.017503  see above
  kinetic energy EKIN   =         0.000122
  kin. lattice  EKIN_LAT=         0.000000  (temperature    0.24 K)
  nose potential ES     =         0.000000
  nose kinetic   EPS    =         0.000000
  ---------------------------------------------------
  total energy   ETOTAL =       -24.017381 eV

  maximum distance moved by ions :      0.11E-03

    WAVPRE:  cpu time    0.0388: real time    0.0395
    FEWALD:  cpu time    0.0003: real time    0.0003
    ORTHCH:  cpu time    0.0080: real time    0.0082
     LOOP+:  cpu time    7.0308: real time    7.2477


--------------------------------------- Iteration      2(   1)  ---------------------------------------


    POTLOK:  cpu time    0.1273: real time    0.1310
    SETDIJ:  cpu time    0.0017: real time    0.0017
     EDDAV:  cpu time    0.1993: real time    0.2020
       DOS:  cpu time    0.0002: real time    0.0002
    CHARGE:  cpu time    0.0175: real time    0.0179
    MIXING:  cpu time    0.0043: real time    0.0053
    --------------------------------------------
      LOOP:  cpu time    0.3503: real time    0.3581

 eigenvalue-minimisations  :    96
 total energy-change (2. order) :-0.9627476E-03  (-0.9957426E-04)
 number of electron       8.0000000 magnetization 
 augmentation part        0.1838500 magnetization 

 Broyden mixing:
  rms(total) = 0.14753E-02    rms(broyden)= 0.14743E-02
  rms(prec ) = 0.18770E-02
  weight for this iteration     100.00

 Free energy of the ion-electron system (eV)
  ---------------------------------------------------
  alpha Z        PSCENC =         0.23644354
  Ewald energy   TEWEN  =       128.53299598
  -Hartree energ DENC   =      -284.40565241
  -exchange      EXHF   =         0.00000000
  -V(xc)+E(xc)   XCENC  =        24.68233154
  PAW double counting   =       458.98425055     -459.76701015
  entropy T*S    EENTRO =        -0.00000000
  eigenvalues    EBANDS =       -89.32357879
  atomic energy  EATOM  =       197.04175453
  Solvation  Ediel_sol  =         0.00000000
  ---------------------------------------------------
  free energy    TOTEN  =       -24.01846521 eV

  energy without entropy =      -24.01846521  energy(sigma->0) =      -24.01846521


--------------------------------------------------------------------------------------------------------




--------------------------------------- Iteration      2(   2)  ---------------------------------------


    POTLOK:  cpu time    0.1303: real time    0.1337
    SETDIJ:  cpu time    0.0016: real time    0.0017
    EDDIAG:  cpu time    0.0378: real time    0.0387
  RMM-DIIS:  cpu time    0.1479: real time    0.1525
    ORTHCH:  cpu time    0.0016: real time    0.0017
       DOS:  cpu time    0.0002: real time    0.0002
    CHARGE:  cpu time    0.0177: real time    0.0181
    MIXING:  cpu time    0.0041: real time    0.0042
    --------------------------------------------
      LOOP:  cpu time    0.3413: real time    0.3506

 eigenvalue-minimisations  :    64
 total energy-change (2. order) : 0.4370147E-05  (-0.2402992E-05)
 number of electron       8.0000000 magnetization 
 augmentation part        0.1838245 magnetization 

 Broyden mixing:
  rms(total) = 0.72612E-03    rms(broyden)= 0.72593E-03
  rms(prec ) = 0.86077E-03
  weight for this iteration     100.00

 eigenvalues of (default mixing * dielectric matrix)
  average eigenvalue GAMMA=   1.6088
  1.6088

 Free energy of the ion-electron system (eV)
  ---------------------------------------------------
  alpha Z        PSCENC =         0.23644354
  Ewald energy   TEWEN  =       128.53299598
  -Hartree energ DENC   =      -284.42733183
  -exchange      EXHF   =         0.00000000
  -V(xc)+E(xc)   XCENC  =        24.68346488
  PAW double counting   =       459.23778492     -460.02080244
  entropy T*S    EENTRO =        -0.00000000
  eigenvalues    EBANDS =       -89.30277042
  atomic energy  EATOM  =       197.04175453
  Solvation  Ediel_sol  =         0.00000000
  ---------------------------------------------------
  free energy    TOTEN  =       -24.01846084 eV

  energy without entropy =      -24.01846084  energy(sigma->0) =      -24.01846084


--------------------------------------------------------------------------------------------------------




--------------------------------------- Iteration      2(   3)  ---------------------------------------


    POTLOK:  cpu time    0.1303: real time    0.1336
    SETDIJ:  cpu time    0.0027: real time    0.0028
    EDDIAG:  cpu time    0.0376: real time    0.0384
  RMM-DIIS:  cpu time    0.1493: real time    0.1535
    ORTHCH:  cpu time    0.0016: real time    0.0016
       DOS:  cpu time    0.0002: real time    0.0002
    CHARGE:  cpu time    0.0177: real time    0.0181
    MIXING:  cpu time    0.0043: real time    0.0044
    --------------------------------------------
      LOOP:  cpu time    0.3437: real time    0.3526

 eigenvalue-minimisations  :    64
 total energy-change (2. order) :-0.2933165E-06  (-0.7021307E-06)
 number of electron       8.0000000 magnetization 
 augmentation part        0.1838062 magnetization 

 Broyden mixing:
  rms(total) = 0.29676E-03    rms(broyden)= 0.29662E-03
  rms(prec ) = 0.34168E-03
  weight for this iteration     100.00

 eigenvalues of (default mixing * dielectric matrix)
  average eigenvalue GAMMA=   1.6331
  1.6331  1.6331

 Free energy of the ion-electron system (eV)
  ---------------------------------------------------
  alpha Z        PSCENC =         0.23644354
  Ewald energy   TEWEN  =       128.53299598
  -Hartree energ DENC   =      -284.43761002
  -exchange      EXHF   =         0.00000000
  -V(xc)+E(xc)   XCENC  =        24.68403629
  PAW double counting   =       459.43139251     -460.21454233
  entropy T*S    EENTRO =        -0.00000000
  eigenvalues    EBANDS =       -89.29293162
  atomic energy  EATOM  =       197.04175453
  Solvation  Ediel_sol  =         0.00000000
  ---------------------------------------------------
  free energy    TOTEN  =       -24.01846113 eV

  energy without entropy =      -24.01846113  energy(sigma->0) =      -24.01846113


--------------------------------------------------------------------------------------------------------




--------------------------------------- Iteration      2(   4)  ---------------------------------------


    POTLOK:  cpu time    0.1330: real time    0.1352
    SETDIJ:  cpu time    0.0016: real time    0.0017
    EDDIAG:  cpu time    0.0380: real time    0.0390
  RMM-DIIS:  cpu time    0.1196: real time    0.1230
    ORTHCH:  cpu time    0.0014: real time    0.0014
       DOS:  cpu time    0.0002: real time    0.0002
    --------------------------------------------
      LOOP:  cpu time    0.2938: real time    0.3004

 eigenvalue-minimisations  :    48
 total energy-change (2. order) :-0.1497511E-06  (-0.2754433E-07)
 number of electron       8.0000000 magnetization 
 augmentation part        0.1838062 magnetization 

 Free energy of the ion-electron system (eV)
  ---------------------------------------------------
  alpha Z        PSCENC =         0.23644354
  Ewald energy   TEWEN  =       128.53299598
  -Hartree energ DENC   =      -284.43407754
  -exchange      EXHF   =         0.00000000
  -V(xc)+E(xc)   XCENC  =        24.68391317
  PAW double counting   =       459.49918961     -460.28229337
  entropy T*S    EENTRO =        -0.00000000
  eigenvalues    EBANDS =       -89.29638719
  atomic energy  EATOM  =       197.04175453
  Solvation  Ediel_sol  =         0.00000000
  ---------------------------------------------------
  free energy    TOTEN  =       -24.01846128 eV

  energy without entropy =      -24.01846128  energy(sigma->0) =      -24.01846128


--------------------------------------------------------------------------------------------------------




 average (electrostatic) potential at core
  the test charge radii are     0.5201  0.6991
  (the norm of the test charge is              1.0000)
       1 -41.4577       2 -41.4597       3 -41.4104       4 -41.5259       5 -57.9966
 
 
 
 E-fermi :  -8.1447     XC(G=0):  -0.6932     alpha+bet : -0.2056


 k-point     1 :       0.2500    0.2500    0.2500
  band No.  band energies     occupation 
      1     -16.8456      2.00000
      2      -9.4175      2.00000
      3      -9.2858      2.00000
      4      -9.0992      2.00000
      5      -0.3273      0.00000
      6       0.5420      0.00000
      7       0.6514      0.00000
      8       0.6998      0.00000

 k-point     2 :      -0.2500    0.2500    0.2500
  band No.  band energies     occupation 
      1     -16.8456      2.00000
      2      -9.4175      2.00000
      3      -9.2858      2.00000
      4      -9.0992      2.00000
      5      -0.3274      0.00000
      6       0.5452      0.00000
      7       0.6591      0.00000
      8       0.6862      0.00000

 k-point     3 :       0.2500   -0.2500    0.2500
  band No.  band energies     occupation 
      1     -16.8456      2.00000
      2      -9.4175      2.00000
      3      -9.2858      2.00000
      4      -9.0992      2.00000
      5      -0.3300      0.00000
      6       0.5457      0.00000
      7       0.6666      0.00000
      8       0.6974      0.00000

 k-point     4 :      -0.2500   -0.2500    0.2500
  band No.  band energies     occupation 
      1     -16.8456      2.00000
      2      -9.4176      2.00000
      3      -9.2859      2.00000
      4      -9.0992      2.00000
      5      -0.3197      0.00000
      6       0.5314      0.00000
      7       0.6359      0.00000
      8       0.6703      0.00000


--------------------------------------------------------------------------------------------------------


 soft charge-density along one line, spin component           1
         0         1         2         3         4         5         6         7         8         9
 total charge-density along one line
 
 pseudopotential strength for first ion, spin component:           1
 -2.341  -4.033  -0.001  -0.001   0.001
 -4.033  -6.864  -0.003  -0.004   0.002
 -0.001  -0.003  -0.338   0.002  -0.001
 -0.001  -0.004   0.002  -0.336  -0.001
  0.001   0.002  -0.001  -0.001  -0.339
 total augmentation occupancy for first ion, spin component:           1
  3.523  -0.635   0.242   0.322  -0.131
 -0.635   0.128  -0.044  -0.060   0.024
  0.242  -0.044   0.023   0.018  -0.008
  0.322  -0.060   0.018   0.033  -0.010
 -0.131   0.024  -0.008  -0.010   0.013


------------------------ aborting loop because EDIFF is reached ----------------------------------------


    CHARGE:  cpu time    0.0183: real time    0.0187
    FORLOC:  cpu time    0.0112: real time    0.0113
    FORNL :  cpu time    0.0176: real time    0.0179
    STRESS:  cpu time    0.1409: real time    0.1423
    FORCOR:  cpu time    0.1275: real time    0.1308
    FORHAR:  cpu time    0.0415: real time    0.0425
    MIXING:  cpu time    0.0056: real time    0.0058
    OFIELD:  cpu time    0.0000: real time    0.0000

  FORCE on cell =-STRESS in cart. coord.  units (eV):
  Direction    XX          YY          ZZ          XY          YZ          ZX
  --------------------------------------------------------------------------------------
  Alpha Z     0.23644     0.23644     0.23644
  Ewald      42.52857    42.48844    43.51597    -2.55339     0.79162     2.61613
  Hartree    95.03666    93.00951    96.38794    -0.88674     0.48400     0.96381
  E(xc)     -27.15144   -27.13339   -27.15902    -0.01031     0.00463     0.01126
  Local    -196.53872  -194.02120  -198.89575     2.99757    -1.24677    -3.16015
  n-local   -15.76254   -15.74251   -15.79190     0.01022     0.01257    -0.00265
  augment     0.11956     0.11647     0.11895     0.00330     0.00016    -0.00304
  Kinetic   100.92951   100.05207   101.31695     0.48946    -0.21817    -0.53561
  Fock        0.00000     0.00000     0.00000     0.00000     0.00000     0.00000
[...]
      5.50372      5.85488      4.37276         0.193382      0.280142     -0.042032
      5.31682      4.37088      5.34715        -0.078239      0.064701     -0.050252
      5.03932      4.87308      4.40862        -0.028459     -0.284597      0.196024
 -----------------------------------------------------------------------------------
    total drift:                               -0.000289      0.000121      0.000123


--------------------------------------------------------------------------------------------------------



  FREE ENERGIE OF THE ION-ELECTRON SYSTEM (eV)
  ---------------------------------------------------
  free  energy   TOTEN  =       -24.02621496 eV

  energy  without entropy=      -24.02621496  energy(sigma->0) =      -24.02621496
 
 d Force =-0.3629196E-03[-0.706E-03,-0.199E-04]  d Energy =-0.3611092E-03-0.181E-05
 d Force =-0.2925189E+00[-0.292E+00,-0.293E+00]  d Ewald  =-0.2925194E+00 0.494E-06


--------------------------------------------------------------------------------------------------------


    POTLOK:  cpu time    0.1304: real time    0.1333


--------------------------------------------------------------------------------------------------------


 stress matrix after NEB project (eV)
     -0.13485      0.17152     -0.12270
      0.17152     -0.13237      0.07452
     -0.12270      0.07452     -0.31338
  FORCES: max atom, RMS     0.346744    0.245130
  FORCE total and by dimension    0.548128    0.284597
  Stress total and by dimension    0.483702    0.313378
           RANDOM_SEED =         581354866               30                0
   IONSTEP:  cpu time    0.0001: real time    0.0001

  ENERGY OF THE ELECTRON-ION-THERMOSTAT SYSTEM (eV)
  ---------------------------------------------------
% ion-electron   TOTEN  =       -24.026215  see above
  kinetic energy EKIN   =         0.008757
  kin. lattice  EKIN_LAT=         0.000000  (temperature   16.94 K)
  nose potential ES     =         0.000000
  nose kinetic   EPS    =         0.000000
  ---------------------------------------------------
  total energy   ETOTAL =       -24.017458 eV

  maximum distance moved by ions :      0.34E-03

    WAVPRE:  cpu time    0.0444: real time    0.0454
    FEWALD:  cpu time    0.0003: real time    0.0003
    ORTHCH:  cpu time    0.0082: real time    0.0083
 Prediction of Wavefunctions ALPHA= 2.193 BETA=-1.231
     LOOP+:  cpu time    1.7492: real time    1.7918


--------------------------------------- Iteration     10(   1)  ---------------------------------------


    POTLOK:  cpu time    0.1284: real time    0.1308
    SETDIJ:  cpu time    0.0019: real time    0.0019
     EDDAV:  cpu time    0.1929: real time    0.1971
       DOS:  cpu time    0.0002: real time    0.0002
    CHARGE:  cpu time    0.0171: real time    0.0175
    MIXING:  cpu time    0.0041: real time    0.0041
    --------------------------------------------
      LOOP:  cpu time    0.3446: real time    0.3517

 eigenvalue-minimisations  :    96
 total energy-change (2. order) : 0.5016847E-03  (-0.9294810E-05)
 number of electron       7.9999998 magnetization 
 augmentation part        0.1866086 magnetization 

 Broyden mixing:
  rms(total) = 0.74415E-04    rms(broyden)= 0.74291E-04
  rms(prec ) = 0.89871E-04
  weight for this iteration     100.00

 Free energy of the ion-electron system (eV)
  ---------------------------------------------------
  alpha Z        PSCENC =         0.23644354
  Ewald energy   TEWEN  =       130.89726727
  -Hartree energ DENC   =      -286.52037024
  -exchange      EXHF   =         0.00000000
  -V(xc)+E(xc)   XCENC  =        24.79444199
  PAW double counting   =       473.79482870     -474.58626625
  entropy T*S    EENTRO =        -0.00000000
  eigenvalues    EBANDS =       -89.68381269
  atomic energy  EATOM  =       197.04175453
  Solvation  Ediel_sol  =         0.00000000
  ---------------------------------------------------
  free energy    TOTEN  =       -24.02571314 eV

  energy without entropy =      -24.02571314  energy(sigma->0) =      -24.02571314


--------------------------------------------------------------------------------------------------------




--------------------------------------- Iteration     10(   2)  ---------------------------------------


    POTLOK:  cpu time    0.1251: real time    0.1288
    SETDIJ:  cpu time    0.0016: real time    0.0016
    EDDIAG:  cpu time    0.0379: real time    0.0388
  RMM-DIIS:  cpu time    0.1208: real time    0.1243
    ORTHCH:  cpu time    0.0014: real time    0.0014
       DOS:  cpu time    0.0002: real time    0.0002
    CHARGE:  cpu time    0.0178: real time    0.0182
    MIXING:  cpu time    0.0043: real time    0.0043
    --------------------------------------------
      LOOP:  cpu time    0.3091: real time    0.3176

 eigenvalue-minimisations  :    48
 total energy-change (2. order) :-0.2580709E-06  (-0.8092901E-07)
 number of electron       7.9999998 magnetization 
 augmentation part        0.1866100 magnetization 

 Broyden mixing:
  rms(total) = 0.32041E-04    rms(broyden)= 0.31954E-04
  rms(prec ) = 0.43299E-04
  weight for this iteration     100.00

 eigenvalues of (default mixing * dielectric matrix)
  average eigenvalue GAMMA=   0.9712
  0.9712

 Free energy of the ion-electron system (eV)
  ---------------------------------------------------
  alpha Z        PSCENC =         0.23644354
  Ewald energy   TEWEN  =       130.89726727
  -Hartree energ DENC   =      -286.51954882
  -exchange      EXHF   =         0.00000000
  -V(xc)+E(xc)   XCENC  =        24.79440297
  PAW double counting   =       473.80215943     -474.59357905
  entropy T*S    EENTRO =        -0.00000000
  eigenvalues    EBANDS =       -89.68461328
  atomic energy  EATOM  =       197.04175453
  Solvation  Ediel_sol  =         0.00000000
  ---------------------------------------------------
  free energy    TOTEN  =       -24.02571340 eV

  energy without entropy =      -24.02571340  energy(sigma->0) =      -24.02571340


--------------------------------------------------------------------------------------------------------




--------------------------------------- Iteration     10(   3)  ---------------------------------------


    POTLOK:  cpu time    0.1264: real time    0.1305
    SETDIJ:  cpu time    0.0017: real time    0.0017
    EDDIAG:  cpu time    0.0377: real time    0.0386
  RMM-DIIS:  cpu time    0.1646: real time    0.1681
    ORTHCH:  cpu time    0.0015: real time    0.0015
       DOS:  cpu time    0.0002: real time    0.0002
    CHARGE:  cpu time    0.0176: real time    0.0181
    MIXING:  cpu time    0.0043: real time    0.0043
    --------------------------------------------
      LOOP:  cpu time    0.3540: real time    0.3631

 eigenvalue-minimisations  :    48
 total energy-change (2. order) :-0.1651139E-06  (-0.8564908E-08)
 number of electron       7.9999998 magnetization 
 augmentation part        0.1866105 magnetization 

 Broyden mixing:
  rms(total) = 0.22783E-04    rms(broyden)= 0.22767E-04
  rms(prec ) = 0.28574E-04
  weight for this iteration     100.00

 eigenvalues of (default mixing * dielectric matrix)
  average eigenvalue GAMMA=   1.2343
  1.2343  1.2343

 Free energy of the ion-electron system (eV)
  ---------------------------------------------------
  alpha Z        PSCENC =         0.23644354
  Ewald energy   TEWEN  =       130.89726727
  -Hartree energ DENC   =      -286.51918523
  -exchange      EXHF   =         0.00000000
  -V(xc)+E(xc)   XCENC  =        24.79438864
  PAW double counting   =       473.79796048     -474.58937451
  entropy T*S    EENTRO =        -0.00000000
  eigenvalues    EBANDS =       -89.68496829
  atomic energy  EATOM  =       197.04175453
  Solvation  Ediel_sol  =         0.00000000
  ---------------------------------------------------
  free energy    TOTEN  =       -24.02571357 eV

  energy without entropy =      -24.02571357  energy(sigma->0) =      -24.02571357


--------------------------------------------------------------------------------------------------------




--------------------------------------- Iteration     10(   4)  ---------------------------------------


    POTLOK:  cpu time    0.1267: real time    0.1317
    SETDIJ:  cpu time    0.0017: real time    0.0022
    EDDIAG:  cpu time    0.0389: real time    0.0399
  RMM-DIIS:  cpu time    0.1159: real time    0.1190
    ORTHCH:  cpu time    0.0016: real time    0.0016
       DOS:  cpu time    0.0002: real time    0.0002
    --------------------------------------------
      LOOP:  cpu time    0.2850: real time    0.2945

 eigenvalue-minimisations  :    36
 total energy-change (2. order) :-0.1528752E-06  (-0.6678054E-09)
 number of electron       7.9999998 magnetization 
 augmentation part        0.1866105 magnetization 

 Free energy of the ion-electron system (eV)
  ---------------------------------------------------
  alpha Z        PSCENC =         0.23644354
  Ewald energy   TEWEN  =       130.89726727
  -Hartree energ DENC   =      -286.51916952
  -exchange      EXHF   =         0.00000000
  -V(xc)+E(xc)   XCENC  =        24.79439046
  PAW double counting   =       473.78980148     -474.58121551
  entropy T*S    EENTRO =        -0.00000000
  eigenvalues    EBANDS =       -89.68498597
  atomic energy  EATOM  =       197.04175453
  Solvation  Ediel_sol  =         0.00000000
  ---------------------------------------------------
  free energy    TOTEN  =       -24.02571372 eV

  energy without entropy =      -24.02571372  energy(sigma->0) =      -24.02571372


--------------------------------------------------------------------------------------------------------




 average (electrostatic) potential at core
  the test charge radii are     0.5201  0.6991
  (the norm of the test charge is              1.0000)
       1 -41.5276       2 -41.5268       3 -41.5868       4 -41.4587       5 -57.9344
 
 
 
 E-fermi :  -8.3223     XC(G=0):  -0.6755     alpha+bet : -0.2056


 k-point     1 :       0.2500    0.2500    0.2500
  band No.  band energies     occupation 
      1     -16.9210      2.00000
      2      -9.3540      2.00000
      3      -9.3094      2.00000
      4      -9.2580      2.00000
      5      -0.3098      0.00000
      6       0.5604      0.00000
      7       0.6670      0.00000
      8       0.7087      0.00000

 k-point     2 :      -0.2500    0.2500    0.2500
  band No.  band energies     occupation 
      1     -16.9210      2.00000
      2      -9.3540      2.00000
      3      -9.3095      2.00000
      4      -9.2580      2.00000
      5      -0.3098      0.00000
      6       0.5653      0.00000
      7       0.6718      0.00000
      8       0.6959      0.00000

 k-point     3 :       0.2500   -0.2500    0.2500
  band No.  band energies     occupation 
      1     -16.9210      2.00000
      2      -9.3540      2.00000
      3      -9.3094      2.00000
      4      -9.2580      2.00000
      5      -0.3121      0.00000
      6       0.5638      0.00000
      7       0.6832      0.00000
      8       0.7028      0.00000

 k-point     4 :      -0.2500   -0.2500    0.2500
  band No.  band energies     occupation 
      1     -16.9210      2.00000
      2      -9.3540      2.00000
      3      -9.3096      2.00000
      4      -9.2581      2.00000
      5      -0.3019      0.00000
      6       0.5458      0.00000
      7       0.6521      0.00000
      8       0.6836      0.00000


--------------------------------------------------------------------------------------------------------


 soft charge-density along one line, spin component           1
         0         1         2         3         4         5         6         7         8         9
 total charge-density along one line
 
 pseudopotential strength for first ion, spin component:           1
 -2.341  -4.034  -0.001  -0.001   0.001
 -4.034  -6.866  -0.003  -0.004   0.002
 -0.001  -0.003  -0.337   0.002  -0.001
 -0.001  -0.004   0.002  -0.336  -0.001
  0.001   0.002  -0.001  -0.001  -0.338
 total augmentation occupancy for first ion, spin component:           1
  3.564  -0.641   0.243   0.335  -0.136
 -0.641   0.129  -0.045  -0.062   0.025
  0.243  -0.045   0.023   0.019  -0.008
  0.335  -0.062   0.019   0.036  -0.011
 -0.136   0.025  -0.008  -0.011   0.014


------------------------ aborting loop because EDIFF is reached ----------------------------------------


    CHARGE:  cpu time    0.0176: real time    0.0181
    FORLOC:  cpu time    0.0112: real time    0.0113
    FORNL :  cpu time    0.0176: real time    0.0178
    STRESS:  cpu time    0.1413: real time    0.1437
    FORCOR:  cpu time    0.1305: real time    0.1333
    FORHAR:  cpu time    0.0418: real time    0.0425
    MIXING:  cpu time    0.0048: real time    0.0048
    OFIELD:  cpu time    0.0000: real time    0.0000

  FORCE on cell =-STRESS in cart. coord.  units (eV):
  Direction    XX          YY          ZZ          XY          YZ          ZX
  --------------------------------------------------------------------------------------
  Alpha Z     0.23644     0.23644     0.23644
  Ewald      43.96433    41.77278    45.16014    -0.59964     0.57605     0.79333
  Hartree    95.85717    93.01553    97.64617    -0.52453     0.25675     0.55370
  E(xc)     -27.26861   -27.26542   -27.26856    -0.00313     0.00016     0.00309
  Local    -198.51011  -193.25198  -201.74340     1.15800    -0.71597    -1.31639
  n-local   -16.01978   -16.03029   -15.99423    -0.01438    -0.01190     0.00847
  augment     0.11342     0.11131     0.11579    -0.00068    -0.00114    -0.00001
  Kinetic   101.53462   101.37840   101.52443     0.15368    -0.00346    -0.15165
  Fock        0.00000     0.00000     0.00000     0.00000     0.00000     0.00000
  -------------------------------------------------------------------------------------
  Total      -0.09251    -0.03323    -0.32322     0.16933     0.10050    -0.10946
  in kB      -0.14467    -0.05196    -0.50544     0.26479     0.15716    -0.17118
  external pressure =       -0.23 kB  Pullay stress =        0.00 kB

  kinetic pressure (ideal gas correction) =      0.01 kB
  total pressure  =     -0.23 kB
  Total+kin.    -0.140      -0.036      -0.499       0.261       0.157      -0.174

 VOLUME and BASIS-vectors are now :
 -----------------------------------------------------------------------------
  energy-cutoff  :      400.00
  volume of cell :     1024.56
      direct lattice vectors                 reciprocal lattice vectors
    10.054214242  0.000000000  0.000000000     0.099460781  0.002810764 -0.002645795
    -0.290819522 10.290843753  0.000000000     0.000000000  0.097173762 -0.001411028
     0.259353060  0.143788898  9.902358206     0.000000000  0.000000000  0.100986046

  length of vectors
    10.054214242 10.294952216  9.906797530     0.099535660  0.097184006  0.100986046


 FORCES acting on ions
    electron-ion (+dipol)            ewald-force                    non-local-force                 convergence-correction
 -----------------------------------------------------------------------------------------------
   -.166E+02 0.296E+02 0.409E+02   0.185E+02 -.328E+02 -.453E+02   -.174E+01 0.311E+01 0.428E+01   0.262E-05 0.187E-04 0.738E-05
   0.528E+02 -.566E+01 0.265E+01   -.585E+02 0.625E+01 -.291E+01   0.553E+01 -.598E+00 0.285E+00   0.183E-04 0.187E-06 -.413E-05
   -.230E+02 -.483E+02 0.184E+01   0.256E+02 0.538E+02 -.207E+01   -.243E+01 -.513E+01 0.191E+00   -.337E-06 -.295E-04 -.963E-05
   -.132E+02 0.241E+02 -.451E+02   0.145E+02 -.265E+02 0.496E+02   -.137E+01 0.248E+01 -.464E+01   0.467E-05 0.105E-04 -.211E-04
   0.548E-01 0.556E+00 -.522E+00   -.718E-01 -.723E+00 0.648E+00   -.183E-01 -.167E+00 0.108E+00   0.764E-04 0.811E-04 -.686E-04
 -----------------------------------------------------------------------------------------------
   0.279E-01 0.300E+00 -.219E+00   0.355E-14 0.355E-14 -.711E-14   -.282E-01 -.300E+00 0.220E+00   0.102E-03 0.810E-04 -.961E-04
 
 
 POSITION                                       TOTAL-FORCE (eV/Angst)
 -----------------------------------------------------------------------------------
      5.38094      4.26492      3.56887         0.066386     -0.068545     -0.154204
      3.95517      4.98930      4.35382        -0.177210     -0.012526      0.022496
      5.50504      5.85197      4.37124         0.206409      0.353988     -0.030861
      5.31445      4.37187      5.34869        -0.060543      0.060525     -0.071331
      5.03932      4.87315      4.40852        -0.035287     -0.333444      0.234199
 -----------------------------------------------------------------------------------
    total drift:                               -0.000245     -0.000003      0.000299


--------------------------------------------------------------------------------------------------------



  FREE ENERGIE OF THE ION-ELECTRON SYSTEM (eV)
  ---------------------------------------------------
  free  energy   TOTEN  =       -24.02571372 eV

  energy  without entropy=      -24.02571372  energy(sigma->0) =      -24.02571372
 
 d Force =-0.5020262E-03[-0.757E-03,-0.247E-03]  d Energy =-0.5012399E-03-0.786E-06
 d Force =-0.2158132E+00[-0.215E+00,-0.216E+00]  d Ewald  =-0.2158139E+00 0.702E-06


--------------------------------------------------------------------------------------------------------


    POTLOK:  cpu time    0.1335: real time    0.1342


--------------------------------------------------------------------------------------------------------


 stress matrix after NEB project (eV)
     -0.09251      0.16933     -0.10946
      0.16933     -0.03323      0.10050
     -0.10946      0.10050     -0.32322
  FORCES: max atom, RMS     0.410931    0.287580
  FORCE total and by dimension    0.643048    0.353988
  Stress total and by dimension    0.464372    0.323217
           RANDOM_SEED =         581354866               30                0
   IONSTEP:  cpu time    0.0001: real time    0.0001

  ENERGY OF THE ELECTRON-ION-THERMOSTAT SYSTEM (eV)
  ---------------------------------------------------
% ion-electron   TOTEN  =       -24.025714  see above
  kinetic energy EKIN   =         0.008276
  kin. lattice  EKIN_LAT=         0.000000  (temperature   16.01 K)
  nose potential ES     =         0.000000
  nose kinetic   EPS    =         0.000000
  ---------------------------------------------------
  total energy   ETOTAL =       -24.017438 eV

  maximum distance moved by ions :      0.33E-03


 mean value of Nose-termostat <S>:     1.000 mean value of <T> :    11.346
 mean temperature <T/S>/<1/S>  :    11.346

    WAVPRE:  cpu time    0.0479: real time    0.0484
    FEWALD:  cpu time    0.0004: real time    0.0004
    ORTHCH:  cpu time    0.0083: real time    0.0097
 Prediction of Wavefunctions ALPHA= 2.115 BETA=-1.143
    POTLOK:  cpu time    0.1335: real time    0.1343
    EDDIAG:  cpu time    0.0398: real time    0.0400
     LOOP+:  cpu time    2.0255: real time    2.0706
    4ORBIT:  cpu time    0.0000: real time    0.0005

 total amount of memory used by VASP MPI-rank0    56670. kBytes
=======================================================================

   base      :      30000. kBytes
   nonl-proj :       2763. kBytes
   fftplans  :       8577. kBytes
   grid      :      13527. kBytes
   one-center:          6. kBytes
   wavefun   :       1797. kBytes
 
  
  
 General timing and accounting informations for this job:
 ========================================================
  
                  Total CPU time used (sec):       25.504
                            User time (sec):       23.961
                          System time (sec):        1.543
                         Elapsed time (sec):       26.616
  
                   Maximum memory used (kb):      174900.
                   Average memory used (kb):           0.
  
                          Minor page faults:       258103
                          Major page faults:          195
                 Voluntary context switches:          634
