unknown system                          
           1
    10.054214    0.000000    0.000000
    -0.290820   10.290844    0.000000
     0.259353    0.143789    9.902358
   H    C 
   4   1
Direct configuration=     1
   0.53760571  0.40730592  0.36047229
   0.39504420  0.47992917  0.43854234
   0.55229169  0.56525403  0.44228170
   0.52798976  0.41690291  0.53893952
   0.50323328  0.46719433  0.44531786
Direct configuration=     2
   0.53760406  0.40736931  0.36048363
   0.39508295  0.47989519  0.43857190
   0.55227703  0.56514888  0.44226075
   0.52795933  0.41690744  0.53897999
   0.50323394  0.46720026  0.44531283
Direct configuration=     3
   0.53760110  0.40749383  0.36050383
   0.39515702  0.47982876  0.43863050
   0.55225108  0.56494535  0.44221905
   0.52789904  0.41691755  0.53905926
   0.50323520  0.46721152  0.44530314
Direct configuration=     4
   0.53759848  0.40767418  0.36052882
   0.39525999  0.47973161  0.43871683
   0.55221938  0.56465736  0.44215720
   0.52780919  0.41693467  0.53917251
   0.50323697  0.46722715  0.44528960
Direct configuration=     5
   0.53759855  0.40790272  0.36055274
   0.39538267  0.47960625  0.43882895
   0.55218982  0.56430479  0.44207609
   0.52769037  0.41696057  0.53931326
   0.50323910  0.46724576  0.44527330
Direct configuration=     6
   0.53760409  0.40816994  0.36056864
   0.39551402  0.47945589  0.43896440
   0.55217194  0.56391215  0.44197695
   0.52754355  0.41699730  0.53947359
   0.50324142  0.46726566  0.44525561
Direct configuration=     7
   0.53761808  0.40846500  0.36056894
   0.39564190  0.47928431  0.43912022
   0.55217621  0.56350690  0.44186126
   0.52737021  0.41704677  0.53964495
   0.50324368  0.46728500  0.44523797
Direct configuration=     8
   0.53764341  0.40877639  0.36054618
   0.39575411  0.47909574  0.43929306
   0.55221298  0.56311738  0.44173083
   0.52717246  0.41711057  0.53981876
   0.50324564  0.46730189  0.44522187
Direct configuration=     9
   0.53768257  0.40909259  0.36049373
   0.39583937  0.47889472  0.43947927
   0.55229145  0.56277055  0.44158775
   0.52695311  0.41718960  0.53998710
   0.50324700  0.46731460  0.44520863
Direct configuration=    10
   0.53773736  0.40940278  0.36040654
   0.39588841  0.47868597  0.43967497
   0.55241849  0.56248952  0.44143442
   0.52671575  0.41728397  0.54014320
   0.50324754  0.46732169  0.44519936
