   5   5   0   0
  0.2046456E+03  0.1018690E-08  0.1016785E-08  0.9888136E-09  0.5000000E-15
  1.000000000000000E-004
  CAR 
 unknown system                          
      2.71328981    -18.94945219  301     -8.26242895      1.00000000
    -18.949  0.0000E+00  0.0000E+00
    -18.877  0.0000E+00  0.0000E+00
    -18.805  0.0000E+00  0.0000E+00
    -18.733  0.0000E+00  0.0000E+00
    -18.661  0.0000E+00  0.0000E+00
    -18.588  0.0000E+00  0.0000E+00
    -18.516  0.0000E+00  0.0000E+00
    -18.444  0.0000E+00  0.0000E+00
    -18.372  0.0000E+00  0.0000E+00
    -18.300  0.0000E+00  0.0000E+00
    -18.227  0.0000E+00  0.0000E+00
    -18.155  0.0000E+00  0.0000E+00
    -18.083  0.1280E-13  0.9215E-15
    -18.011  0.7046E-12  0.5163E-13
    -17.939  0.3035E-10  0.2236E-11
    -17.866  0.1013E-08  0.7511E-10
    -17.794  0.2616E-07  0.1958E-08
    -17.722  0.5235E-06  0.3963E-07
    -17.650  0.8116E-05  0.6237E-06
    -17.577  0.9753E-04  0.7642E-05
    -17.505  0.9084E-03  0.7302E-04
    -17.433  0.6561E-02  0.5452E-03
    -17.361  0.3675E-01  0.3190E-02
    -17.289  0.1597E+00  0.1468E-01
    -17.216  0.5383E+00  0.5341E-01
    -17.144  0.1408E+01  0.1547E+00
    -17.072  0.2860E+01  0.3605E+00
    -17.000  0.4508E+01  0.6848E+00
    -16.928  0.5516E+01  0.1082E+01
    -16.855  0.5242E+01  0.1459E+01
    -16.783  0.3867E+01  0.1737E+01
    -16.711  0.2215E+01  0.1896E+01
    -16.639  0.9855E+00  0.1967E+01
    -16.567  0.3404E+00  0.1992E+01
    -16.494  0.9127E-01  0.1998E+01
    -16.422  0.1900E-01  0.2000E+01
    -16.350  0.3070E-02  0.2000E+01
    -16.278  0.3850E-03  0.2000E+01
    -16.206  0.3747E-04  0.2000E+01
    -16.133  0.2829E-05  0.2000E+01
    -16.061  0.1657E-06  0.2000E+01
    -15.989  0.7532E-08  0.2000E+01
    -15.917  0.2655E-09  0.2000E+01
    -15.844  0.7256E-11  0.2000E+01
    -15.772  0.1537E-12  0.2000E+01
    -15.700  0.2474E-14  0.2000E+01
    -15.628  0.0000E+00  0.2000E+01
    -15.556  0.0000E+00  0.2000E+01
    -15.483  0.0000E+00  0.2000E+01
    -15.411  0.0000E+00  0.2000E+01
    -15.339  0.0000E+00  0.2000E+01
    -15.267  0.0000E+00  0.2000E+01
    -15.195  0.0000E+00  0.2000E+01
    -15.122  0.0000E+00  0.2000E+01
    -15.050  0.0000E+00  0.2000E+01
    -14.978  0.0000E+00  0.2000E+01
    -14.906  0.0000E+00  0.2000E+01
    -14.834  0.0000E+00  0.2000E+01
    -14.761  0.0000E+00  0.2000E+01
    -14.689  0.0000E+00  0.2000E+01
    -14.617  0.0000E+00  0.2000E+01
    -14.545  0.0000E+00  0.2000E+01
    -14.472  0.0000E+00  0.2000E+01
    -14.400  0.0000E+00  0.2000E+01
    -14.328  0.0000E+00  0.2000E+01
    -14.256  0.0000E+00  0.2000E+01
    -14.184  0.0000E+00  0.2000E+01
    -14.111  0.0000E+00  0.2000E+01
    -14.039  0.0000E+00  0.2000E+01
    -13.967  0.0000E+00  0.2000E+01
    -13.895  0.0000E+00  0.2000E+01
    -13.823  0.0000E+00  0.2000E+01
    -13.750  0.0000E+00  0.2000E+01
    -13.678  0.0000E+00  0.2000E+01
    -13.606  0.0000E+00  0.2000E+01
    -13.534  0.0000E+00  0.2000E+01
    -13.462  0.0000E+00  0.2000E+01
    -13.389  0.0000E+00  0.2000E+01
    -13.317  0.0000E+00  0.2000E+01
    -13.245  0.0000E+00  0.2000E+01
    -13.173  0.0000E+00  0.2000E+01
    -13.101  0.0000E+00  0.2000E+01
    -13.028  0.0000E+00  0.2000E+01
    -12.956  0.0000E+00  0.2000E+01
    -12.884  0.0000E+00  0.2000E+01
    -12.812  0.0000E+00  0.2000E+01
    -12.739  0.0000E+00  0.2000E+01
    -12.667  0.0000E+00  0.2000E+01
    -12.595  0.0000E+00  0.2000E+01
    -12.523  0.0000E+00  0.2000E+01
    -12.451  0.0000E+00  0.2000E+01
    -12.378  0.0000E+00  0.2000E+01
    -12.306  0.0000E+00  0.2000E+01
    -12.234  0.0000E+00  0.2000E+01
    -12.162  0.0000E+00  0.2000E+01
    -12.090  0.0000E+00  0.2000E+01
    -12.017  0.0000E+00  0.2000E+01
    -11.945  0.0000E+00  0.2000E+01
    -11.873  0.0000E+00  0.2000E+01
    -11.801  0.0000E+00  0.2000E+01
    -11.729  0.0000E+00  0.2000E+01
    -11.656  0.0000E+00  0.2000E+01
    -11.584  0.0000E+00  0.2000E+01
    -11.512  0.0000E+00  0.2000E+01
    -11.440  0.0000E+00  0.2000E+01
    -11.367  0.0000E+00  0.2000E+01
    -11.295  0.0000E+00  0.2000E+01
    -11.223  0.0000E+00  0.2000E+01
    -11.151  0.0000E+00  0.2000E+01
    -11.079  0.0000E+00  0.2000E+01
    -11.006  0.0000E+00  0.2000E+01
    -10.934  0.0000E+00  0.2000E+01
    -10.862  0.0000E+00  0.2000E+01
    -10.790  0.0000E+00  0.2000E+01
    -10.718  0.0000E+00  0.2000E+01
    -10.645  0.1547E-15  0.2000E+01
    -10.573  0.1887E-13  0.2000E+01
    -10.501  0.9732E-12  0.2000E+01
    -10.429  0.3925E-10  0.2000E+01
    -10.357  0.1235E-08  0.2000E+01
    -10.284  0.3032E-07  0.2000E+01
    -10.212  0.5816E-06  0.2000E+01
    -10.140  0.8727E-05  0.2000E+01
    -10.068  0.1026E-03  0.2000E+01
     -9.996  0.9459E-03  0.2000E+01
     -9.923  0.6853E-02  0.2001E+01
     -9.851  0.3910E-01  0.2003E+01
     -9.779  0.1761E+00  0.2016E+01
     -9.707  0.6275E+00  0.2061E+01
     -9.634  0.1777E+01  0.2189E+01
     -9.562  0.4018E+01  0.2478E+01
     -9.490  0.7312E+01  0.3004E+01
     -9.418  0.1082E+02  0.3782E+01
     -9.346  0.1321E+02  0.4733E+01
     -9.273  0.1353E+02  0.5707E+01
     -9.201  0.1184E+02  0.6559E+01
     -9.129  0.8921E+01  0.7200E+01
     -9.057  0.5772E+01  0.7616E+01
     -8.985  0.3162E+01  0.7843E+01
     -8.912  0.1440E+01  0.7947E+01
     -8.840  0.5354E+00  0.7985E+01
     -8.768  0.1604E+00  0.7997E+01
     -8.696  0.3835E-01  0.7999E+01
     -8.624  0.7267E-02  0.8000E+01
     -8.551  0.1086E-02  0.8000E+01
     -8.479  0.1276E-03  0.8000E+01
     -8.407  0.1176E-04  0.8000E+01
     -8.335  0.8478E-06  0.8000E+01
     -8.262  0.4774E-07  0.8000E+01
     -8.190  0.2098E-08  0.8000E+01
     -8.118  0.7181E-10  0.8000E+01
     -8.046  0.1914E-11  0.8000E+01
     -7.974  0.3930E-13  0.8000E+01
     -7.901  0.6190E-15  0.8000E+01
     -7.829  0.0000E+00  0.8000E+01
     -7.757  0.0000E+00  0.8000E+01
     -7.685  0.0000E+00  0.8000E+01
     -7.613  0.0000E+00  0.8000E+01
     -7.540  0.0000E+00  0.8000E+01
     -7.468  0.0000E+00  0.8000E+01
     -7.396  0.0000E+00  0.8000E+01
     -7.324  0.0000E+00  0.8000E+01
     -7.252  0.0000E+00  0.8000E+01
     -7.179  0.0000E+00  0.8000E+01
     -7.107  0.0000E+00  0.8000E+01
     -7.035  0.0000E+00  0.8000E+01
     -6.963  0.0000E+00  0.8000E+01
     -6.891  0.0000E+00  0.8000E+01
     -6.818  0.0000E+00  0.8000E+01
     -6.746  0.0000E+00  0.8000E+01
     -6.674  0.0000E+00  0.8000E+01
     -6.602  0.0000E+00  0.8000E+01
     -6.529  0.0000E+00  0.8000E+01
     -6.457  0.0000E+00  0.8000E+01
     -6.385  0.0000E+00  0.8000E+01
     -6.313  0.0000E+00  0.8000E+01
     -6.241  0.0000E+00  0.8000E+01
     -6.168  0.0000E+00  0.8000E+01
     -6.096  0.0000E+00  0.8000E+01
     -6.024  0.0000E+00  0.8000E+01
     -5.952  0.0000E+00  0.8000E+01
     -5.880  0.0000E+00  0.8000E+01
     -5.807  0.0000E+00  0.8000E+01
     -5.735  0.0000E+00  0.8000E+01
     -5.663  0.0000E+00  0.8000E+01
     -5.591  0.0000E+00  0.8000E+01
     -5.519  0.0000E+00  0.8000E+01
     -5.446  0.0000E+00  0.8000E+01
     -5.374  0.0000E+00  0.8000E+01
     -5.302  0.0000E+00  0.8000E+01
     -5.230  0.0000E+00  0.8000E+01
     -5.158  0.0000E+00  0.8000E+01
     -5.085  0.0000E+00  0.8000E+01
     -5.013  0.0000E+00  0.8000E+01
     -4.941  0.0000E+00  0.8000E+01
     -4.869  0.0000E+00  0.8000E+01
     -4.796  0.0000E+00  0.8000E+01
     -4.724  0.0000E+00  0.8000E+01
     -4.652  0.0000E+00  0.8000E+01
     -4.580  0.0000E+00  0.8000E+01
     -4.508  0.0000E+00  0.8000E+01
     -4.435  0.0000E+00  0.8000E+01
     -4.363  0.0000E+00  0.8000E+01
     -4.291  0.0000E+00  0.8000E+01
     -4.219  0.0000E+00  0.8000E+01
     -4.147  0.0000E+00  0.8000E+01
     -4.074  0.0000E+00  0.8000E+01
     -4.002  0.0000E+00  0.8000E+01
     -3.930  0.0000E+00  0.8000E+01
     -3.858  0.0000E+00  0.8000E+01
     -3.786  0.0000E+00  0.8000E+01
     -3.713  0.0000E+00  0.8000E+01
     -3.641  0.0000E+00  0.8000E+01
     -3.569  0.0000E+00  0.8000E+01
     -3.497  0.0000E+00  0.8000E+01
     -3.424  0.0000E+00  0.8000E+01
     -3.352  0.0000E+00  0.8000E+01
     -3.280  0.0000E+00  0.8000E+01
     -3.208  0.0000E+00  0.8000E+01
     -3.136  0.0000E+00  0.8000E+01
     -3.063  0.0000E+00  0.8000E+01
     -2.991  0.0000E+00  0.8000E+01
     -2.919  0.0000E+00  0.8000E+01
     -2.847  0.0000E+00  0.8000E+01
     -2.775  0.0000E+00  0.8000E+01
     -2.702  0.0000E+00  0.8000E+01
     -2.630  0.0000E+00  0.8000E+01
     -2.558  0.0000E+00  0.8000E+01
     -2.486  0.0000E+00  0.8000E+01
     -2.414  0.0000E+00  0.8000E+01
     -2.341  0.0000E+00  0.8000E+01
     -2.269  0.0000E+00  0.8000E+01
     -2.197  0.0000E+00  0.8000E+01
     -2.125  0.0000E+00  0.8000E+01
     -2.053  0.0000E+00  0.8000E+01
     -1.980  0.0000E+00  0.8000E+01
     -1.908  0.0000E+00  0.8000E+01
     -1.836  0.0000E+00  0.8000E+01
     -1.764  0.0000E+00  0.8000E+01
     -1.691  0.0000E+00  0.8000E+01
     -1.619  0.0000E+00  0.8000E+01
     -1.547  0.3868E-16  0.8000E+01
     -1.475  0.1410E-13  0.8000E+01
     -1.403  0.7548E-12  0.8000E+01
     -1.330  0.3155E-10  0.8000E+01
     -1.258  0.1025E-08  0.8000E+01
     -1.186  0.2590E-07  0.8000E+01
     -1.114  0.5085E-06  0.8000E+01
     -1.042  0.7765E-05  0.8000E+01
     -0.969  0.9223E-04  0.8000E+01
     -0.897  0.8522E-03  0.8000E+01
     -0.825  0.6126E-02  0.8001E+01
     -0.753  0.3428E-01  0.8003E+01
     -0.681  0.1493E+00  0.8014E+01
     -0.608  0.5059E+00  0.8050E+01
     -0.536  0.1335E+01  0.8146E+01
     -0.464  0.2742E+01  0.8343E+01
     -0.392  0.4384E+01  0.8659E+01
     -0.319  0.5456E+01  0.9051E+01
     -0.247  0.5286E+01  0.9432E+01
     -0.175  0.3985E+01  0.9718E+01
     -0.103  0.2337E+01  0.9887E+01
     -0.031  0.1067E+01  0.9963E+01
      0.042  0.3844E+00  0.9991E+01
      0.114  0.1389E+00  0.1000E+02
      0.186  0.1806E+00  0.1001E+02
      0.258  0.5795E+00  0.1006E+02
      0.330  0.1673E+01  0.1018E+02
      0.403  0.3908E+01  0.1046E+02
      0.475  0.7412E+01  0.1099E+02
      0.547  0.1148E+02  0.1182E+02
      0.619  0.1454E+02  0.1286E+02
      0.691  0.1503E+02  0.1394E+02
      0.764  0.1261E+02  0.1485E+02
      0.836  0.8520E+01  0.1546E+02
      0.908  0.4595E+01  0.1580E+02
      0.980  0.1966E+01  0.1594E+02
      1.052  0.6635E+00  0.1598E+02
      1.125  0.1760E+00  0.1600E+02
      1.197  0.3657E-01  0.1600E+02
      1.269  0.5942E-02  0.1600E+02
      1.341  0.7539E-03  0.1600E+02
      1.414  0.7461E-04  0.1600E+02
      1.486  0.5754E-05  0.1600E+02
      1.558  0.3456E-06  0.1600E+02
      1.630  0.1615E-07  0.1600E+02
      1.702  0.5874E-09  0.1600E+02
      1.775  0.1661E-10  0.1600E+02
      1.847  0.3657E-12  0.1600E+02
      1.919  0.5707E-14  0.1600E+02
      1.991  0.0000E+00  0.1600E+02
      2.063  0.0000E+00  0.1600E+02
      2.136  0.0000E+00  0.1600E+02
      2.208  0.0000E+00  0.1600E+02
      2.280  0.0000E+00  0.1600E+02
      2.352  0.0000E+00  0.1600E+02
      2.424  0.0000E+00  0.1600E+02
      2.497  0.0000E+00  0.1600E+02
      2.569  0.0000E+00  0.1600E+02
      2.641  0.0000E+00  0.1600E+02
      2.713  0.0000E+00  0.1600E+02
      2.72118156    -18.95683592  301     -8.26227673      1.00000000
    -18.957  0.0000E+00  0.0000E+00
    -18.885  0.0000E+00  0.0000E+00
    -18.812  0.0000E+00  0.0000E+00
    -18.740  0.0000E+00  0.0000E+00
    -18.668  0.0000E+00  0.0000E+00
    -18.596  0.0000E+00  0.0000E+00
    -18.523  0.0000E+00  0.0000E+00
    -18.451  0.0000E+00  0.0000E+00
    -18.379  0.0000E+00  0.0000E+00
    -18.306  0.0000E+00  0.0000E+00
    -18.234  0.0000E+00  0.0000E+00
    -18.162  0.0000E+00  0.0000E+00
    -18.090  0.1536E-14  0.1110E-15
    -18.017  0.8681E-13  0.6384E-14
    -17.945  0.3743E-11  0.2768E-12
    -17.873  0.1247E-09  0.9291E-11
    -17.801  0.3214E-08  0.2415E-09
    -17.728  0.6400E-07  0.4866E-08
    -17.656  0.9854E-06  0.7607E-07
    -17.584  0.1173E-04  0.9240E-06
    -17.512  0.1081E-03  0.8735E-05
    -17.439  0.7705E-03  0.6441E-04
    -17.367  0.4250E-02  0.3715E-03
    -17.295  0.1815E-01  0.1683E-02
    -17.223  0.6000E-01  0.6018E-02
    -17.150  0.1536E+00  0.1712E-01
    -17.078  0.3044E+00  0.3911E-01
    -17.006  0.4674E+00  0.7289E-01
    -16.934  0.5558E+00  0.1131E+00
    -16.861  0.5120E+00  0.1501E+00
    -16.789  0.3653E+00  0.1764E+00
    -16.717  0.2019E+00  0.1910E+00
    -16.645  0.8638E-01  0.1973E+00
    -16.572  0.2863E-01  0.1993E+00
    -16.500  0.7345E-02  0.1999E+00
    -16.428  0.1459E-02  0.2000E+00
    -16.355  0.2243E-03  0.2000E+00
    -16.283  0.2668E-04  0.2000E+00
    -16.211  0.2455E-05  0.2000E+00
    -16.139  0.1748E-06  0.2000E+00
    -16.066  0.9619E-08  0.2000E+00
    -15.994  0.4093E-09  0.2000E+00
    -15.922  0.1346E-10  0.2000E+00
    -15.850  0.3422E-12  0.2000E+00
    -15.777  0.6760E-14  0.2000E+00
    -15.705  0.0000E+00  0.2000E+00
    -15.633  0.0000E+00  0.2000E+00
    -15.561  0.0000E+00  0.2000E+00
    -15.488  0.0000E+00  0.2000E+00
    -15.416  0.0000E+00  0.2000E+00
    -15.344  0.0000E+00  0.2000E+00
    -15.272  0.0000E+00  0.2000E+00
    -15.199  0.0000E+00  0.2000E+00
    -15.127  0.0000E+00  0.2000E+00
    -15.055  0.0000E+00  0.2000E+00
    -14.983  0.0000E+00  0.2000E+00
    -14.910  0.0000E+00  0.2000E+00
    -14.838  0.0000E+00  0.2000E+00
    -14.766  0.0000E+00  0.2000E+00
    -14.693  0.0000E+00  0.2000E+00
    -14.621  0.0000E+00  0.2000E+00
    -14.549  0.0000E+00  0.2000E+00
    -14.477  0.0000E+00  0.2000E+00
    -14.404  0.0000E+00  0.2000E+00
    -14.332  0.0000E+00  0.2000E+00
    -14.260  0.0000E+00  0.2000E+00
    -14.188  0.0000E+00  0.2000E+00
    -14.115  0.0000E+00  0.2000E+00
    -14.043  0.0000E+00  0.2000E+00
    -13.971  0.0000E+00  0.2000E+00
    -13.899  0.0000E+00  0.2000E+00
    -13.826  0.0000E+00  0.2000E+00
    -13.754  0.0000E+00  0.2000E+00
    -13.682  0.0000E+00  0.2000E+00
    -13.610  0.0000E+00  0.2000E+00
    -13.537  0.0000E+00  0.2000E+00
    -13.465  0.0000E+00  0.2000E+00
    -13.393  0.0000E+00  0.2000E+00
    -13.321  0.0000E+00  0.2000E+00
    -13.248  0.0000E+00  0.2000E+00
    -13.176  0.0000E+00  0.2000E+00
    -13.104  0.0000E+00  0.2000E+00
    -13.032  0.0000E+00  0.2000E+00
    -12.959  0.0000E+00  0.2000E+00
    -12.887  0.0000E+00  0.2000E+00
    -12.815  0.0000E+00  0.2000E+00
    -12.742  0.0000E+00  0.2000E+00
    -12.670  0.0000E+00  0.2000E+00
    -12.598  0.0000E+00  0.2000E+00
    -12.526  0.0000E+00  0.2000E+00
    -12.453  0.0000E+00  0.2000E+00
    -12.381  0.0000E+00  0.2000E+00
    -12.309  0.0000E+00  0.2000E+00
    -12.237  0.0000E+00  0.2000E+00
    -12.164  0.0000E+00  0.2000E+00
    -12.092  0.0000E+00  0.2000E+00
    -12.020  0.0000E+00  0.2000E+00
    -11.948  0.0000E+00  0.2000E+00
    -11.875  0.0000E+00  0.2000E+00
    -11.803  0.0000E+00  0.2000E+00
    -11.731  0.0000E+00  0.2000E+00
    -11.659  0.0000E+00  0.2000E+00
    -11.586  0.0000E+00  0.2000E+00
    -11.514  0.0000E+00  0.2000E+00
    -11.442  0.0000E+00  0.2000E+00
    -11.370  0.0000E+00  0.2000E+00
    -11.297  0.0000E+00  0.2000E+00
    -11.225  0.0000E+00  0.2000E+00
    -11.153  0.0000E+00  0.2000E+00
    -11.080  0.0000E+00  0.2000E+00
    -11.008  0.0000E+00  0.2000E+00
    -10.936  0.0000E+00  0.2000E+00
    -10.864  0.0000E+00  0.2000E+00
    -10.791  0.0000E+00  0.2000E+00
    -10.719  0.0000E+00  0.2000E+00
    -10.647  0.0000E+00  0.2000E+00
    -10.575  0.3073E-15  0.2000E+00
    -10.502  0.1951E-13  0.2000E+00
    -10.430  0.9287E-12  0.2000E+00
    -10.358  0.3419E-10  0.2000E+00
    -10.286  0.9736E-09  0.2000E+00
    -10.213  0.2145E-07  0.2000E+00
    -10.141  0.3661E-06  0.2000E+00
    -10.069  0.4843E-05  0.2000E+00
     -9.997  0.4974E-04  0.2000E+00
     -9.924  0.3973E-03  0.2000E+00
     -9.852  0.2475E-02  0.2002E+00
     -9.780  0.1207E-01  0.2011E+00
     -9.708  0.4630E-01  0.2044E+00
     -9.635  0.1407E+00  0.2146E+00
     -9.563  0.3416E+00  0.2393E+00
     -9.491  0.6690E+00  0.2876E+00
     -9.419  0.1066E+01  0.3647E+00
     -9.346  0.1392E+01  0.4653E+00
     -9.274  0.1491E+01  0.5730E+00
     -9.202  0.1308E+01  0.6675E+00
     -9.129  0.9316E+00  0.7348E+00
     -9.057  0.5348E+00  0.7735E+00
     -8.985  0.2453E+00  0.7912E+00
     -8.913  0.8924E-01  0.7976E+00
     -8.840  0.2561E-01  0.7995E+00
     -8.768  0.5770E-02  0.7999E+00
     -8.696  0.1017E-02  0.8000E+00
     -8.624  0.1401E-03  0.8000E+00
     -8.551  0.1502E-04  0.8000E+00
     -8.479  0.1253E-05  0.8000E+00
     -8.407  0.8116E-07  0.8000E+00
     -8.335  0.4080E-08  0.8000E+00
     -8.262  0.1590E-09  0.8000E+00
     -8.190  0.4800E-11  0.8000E+00
     -8.118  0.1123E-12  0.8000E+00
     -8.046  0.1844E-14  0.8000E+00
     -7.973  0.0000E+00  0.8000E+00
     -7.901  0.0000E+00  0.8000E+00
     -7.829  0.0000E+00  0.8000E+00
     -7.757  0.0000E+00  0.8000E+00
     -7.684  0.0000E+00  0.8000E+00
     -7.612  0.0000E+00  0.8000E+00
     -7.540  0.0000E+00  0.8000E+00
     -7.467  0.0000E+00  0.8000E+00
     -7.395  0.0000E+00  0.8000E+00
     -7.323  0.0000E+00  0.8000E+00
     -7.251  0.0000E+00  0.8000E+00
     -7.178  0.0000E+00  0.8000E+00
     -7.106  0.0000E+00  0.8000E+00
     -7.034  0.0000E+00  0.8000E+00
     -6.962  0.0000E+00  0.8000E+00
     -6.889  0.0000E+00  0.8000E+00
     -6.817  0.0000E+00  0.8000E+00
     -6.745  0.0000E+00  0.8000E+00
     -6.673  0.0000E+00  0.8000E+00
     -6.600  0.0000E+00  0.8000E+00
     -6.528  0.0000E+00  0.8000E+00
     -6.456  0.0000E+00  0.8000E+00
     -6.384  0.0000E+00  0.8000E+00
     -6.311  0.0000E+00  0.8000E+00
     -6.239  0.0000E+00  0.8000E+00
     -6.167  0.0000E+00  0.8000E+00
     -6.095  0.0000E+00  0.8000E+00
     -6.022  0.0000E+00  0.8000E+00
     -5.950  0.0000E+00  0.8000E+00
     -5.878  0.0000E+00  0.8000E+00
     -5.806  0.0000E+00  0.8000E+00
     -5.733  0.0000E+00  0.8000E+00
     -5.661  0.0000E+00  0.8000E+00
     -5.589  0.0000E+00  0.8000E+00
     -5.516  0.0000E+00  0.8000E+00
     -5.444  0.0000E+00  0.8000E+00
     -5.372  0.0000E+00  0.8000E+00
     -5.300  0.0000E+00  0.8000E+00
     -5.227  0.0000E+00  0.8000E+00
     -5.155  0.0000E+00  0.8000E+00
     -5.083  0.0000E+00  0.8000E+00
     -5.011  0.0000E+00  0.8000E+00
     -4.938  0.0000E+00  0.8000E+00
     -4.866  0.0000E+00  0.8000E+00
     -4.794  0.0000E+00  0.8000E+00
     -4.722  0.0000E+00  0.8000E+00
     -4.649  0.0000E+00  0.8000E+00
     -4.577  0.0000E+00  0.8000E+00
     -4.505  0.0000E+00  0.8000E+00
     -4.433  0.0000E+00  0.8000E+00
     -4.360  0.0000E+00  0.8000E+00
     -4.288  0.0000E+00  0.8000E+00
     -4.216  0.0000E+00  0.8000E+00
     -4.144  0.0000E+00  0.8000E+00
     -4.071  0.0000E+00  0.8000E+00
     -3.999  0.0000E+00  0.8000E+00
     -3.927  0.0000E+00  0.8000E+00
     -3.854  0.0000E+00  0.8000E+00
     -3.782  0.0000E+00  0.8000E+00
     -3.710  0.0000E+00  0.8000E+00
     -3.638  0.0000E+00  0.8000E+00
     -3.565  0.0000E+00  0.8000E+00
     -3.493  0.0000E+00  0.8000E+00
     -3.421  0.0000E+00  0.8000E+00
     -3.349  0.0000E+00  0.8000E+00
     -3.276  0.0000E+00  0.8000E+00
     -3.204  0.0000E+00  0.8000E+00
     -3.132  0.0000E+00  0.8000E+00
     -3.060  0.0000E+00  0.8000E+00
     -2.987  0.0000E+00  0.8000E+00
     -2.915  0.0000E+00  0.8000E+00
     -2.843  0.0000E+00  0.8000E+00
     -2.771  0.0000E+00  0.8000E+00
     -2.698  0.0000E+00  0.8000E+00
     -2.626  0.0000E+00  0.8000E+00
     -2.554  0.0000E+00  0.8000E+00
     -2.482  0.0000E+00  0.8000E+00
     -2.409  0.0000E+00  0.8000E+00
     -2.337  0.0000E+00  0.8000E+00
     -2.265  0.0000E+00  0.8000E+00
     -2.193  0.0000E+00  0.8000E+00
     -2.120  0.0000E+00  0.8000E+00
     -2.048  0.0000E+00  0.8000E+00
     -1.976  0.0000E+00  0.8000E+00
     -1.903  0.0000E+00  0.8000E+00
     -1.831  0.0000E+00  0.8000E+00
     -1.759  0.0000E+00  0.8000E+00
     -1.687  0.0000E+00  0.8000E+00
     -1.614  0.0000E+00  0.8000E+00
     -1.542  0.0000E+00  0.8000E+00
     -1.470  0.1921E-15  0.8000E+00
     -1.398  0.1302E-13  0.8000E+00
     -1.325  0.6321E-12  0.8000E+00
     -1.253  0.2380E-10  0.8000E+00
     -1.181  0.6930E-09  0.8000E+00
     -1.109  0.1560E-07  0.8000E+00
     -1.036  0.2715E-06  0.8000E+00
     -0.964  0.3655E-05  0.8000E+00
     -0.892  0.3808E-04  0.8000E+00
     -0.820  0.3070E-03  0.8000E+00
     -0.747  0.1916E-02  0.8002E+00
     -0.675  0.9255E-02  0.8008E+00
     -0.603  0.3462E-01  0.8033E+00
     -0.531  0.1003E+00  0.8106E+00
     -0.458  0.2251E+00  0.8268E+00
     -0.386  0.3914E+00  0.8551E+00
     -0.314  0.5271E+00  0.8932E+00
     -0.241  0.5500E+00  0.9330E+00
     -0.169  0.4446E+00  0.9651E+00
     -0.097  0.2785E+00  0.9852E+00
     -0.025  0.1352E+00  0.9950E+00
      0.048  0.5129E-01  0.9987E+00
      0.120  0.1784E-01  0.1000E+01
      0.192  0.1757E-01  0.1001E+01
      0.264  0.5290E-01  0.1005E+01
      0.337  0.1533E+00  0.1016E+01
      0.409  0.3609E+00  0.1042E+01
      0.481  0.6917E+00  0.1092E+01
      0.553  0.1088E+01  0.1171E+01
      0.626  0.1408E+01  0.1273E+01
      0.698  0.1497E+01  0.1381E+01
      0.770  0.1297E+01  0.1474E+01
      0.842  0.9057E+00  0.1540E+01
      0.915  0.5048E+00  0.1576E+01
      0.987  0.2228E+00  0.1593E+01
      1.059  0.7735E-01  0.1598E+01
      1.131  0.2104E-01  0.1600E+01
      1.204  0.4470E-02  0.1600E+01
      1.276  0.7405E-03  0.1600E+01
      1.348  0.9549E-04  0.1600E+01
      1.421  0.9578E-05  0.1600E+01
      1.493  0.7466E-06  0.1600E+01
      1.565  0.4520E-07  0.1600E+01
      1.637  0.2125E-08  0.1600E+01
      1.710  0.7750E-10  0.1600E+01
      1.782  0.2193E-11  0.1600E+01
      1.854  0.4817E-13  0.1600E+01
      1.926  0.7682E-15  0.1600E+01
      1.999  0.0000E+00  0.1600E+01
      2.071  0.0000E+00  0.1600E+01
      2.143  0.0000E+00  0.1600E+01
      2.215  0.0000E+00  0.1600E+01
      2.288  0.0000E+00  0.1600E+01
      2.360  0.0000E+00  0.1600E+01
      2.432  0.0000E+00  0.1600E+01
      2.504  0.0000E+00  0.1600E+01
      2.577  0.0000E+00  0.1600E+01
      2.649  0.0000E+00  0.1600E+01
      2.721  0.0000E+00  0.1600E+01
