    5    5   10    1
  0.2046456E+03  0.1018690E-08  0.1016785E-08  0.9888136E-09  0.5000000E-15
  1.000000000000000E-004
  CAR 
 unknown system                          
      8      4      8
 
  0.2500000E+00  0.2500000E+00  0.2500000E+00  0.2500000E+00
    1      -16.956836   1.000000
    2       -9.414350   1.000000
    3       -9.310886   1.000000
    4       -9.246519   1.000000
    5       -0.298035   0.000000
    6        0.550936   0.000000
    7        0.662694   0.000000
    8        0.690299   0.000000
 
 -0.2500000E+00  0.2500000E+00  0.2500000E+00  0.2500000E+00
    1      -16.956799   1.000000
    2       -9.414337   1.000000
    3       -9.310828   1.000000
    4       -9.246515   1.000000
    5       -0.299553   0.000000
    6        0.535582   0.000000
    7        0.673304   0.000000
    8        0.700862   0.000000
 
  0.2500000E+00 -0.2500000E+00  0.2500000E+00  0.2500000E+00
    1      -16.956789   1.000000
    2       -9.414351   1.000000
    3       -9.310812   1.000000
    4       -9.246485   1.000000
    5       -0.299986   0.000000
    6        0.538216   0.000000
    7        0.672305   0.000000
    8        0.703592   0.000000
 
 -0.2500000E+00 -0.2500000E+00  0.2500000E+00  0.2500000E+00
    1      -16.956774   1.000000
    2       -9.414338   1.000000
    3       -9.310749   1.000000
    4       -9.246456   1.000000
    5       -0.309216   0.000000
    6        0.573165   0.000000
    7        0.684457   0.000000
    8        0.721182   0.000000
