 running on   16 total cores
 distrk:  each k-point on   16 cores,    1 groups
 distr:  one band on    4 cores,    4 groups
 using from now: INCAR     
 vasp.5.4.4.18Apr17-6-g9f103f2a35 (build Nov 25 2021 15:25:00) complex          
  
 POSCAR found type information on POSCAR  H  C 
 POSCAR found :  2 types and       5 ions
 scaLAPACK will be used
 LDA part: xc-table for Pade appr. of Perdew
 POSCAR found type information on POSCAR  H  C 
 POSCAR found :  2 types and       5 ions
 generate k-points for:    2    2    2
 POSCAR, INCAR and KPOINTS ok, starting setup
 FFT: planning ...
 WAVECAR not read
 prediction of wavefunctions initialized - no I/O
 entering main loop
       N       E                     dE             d eps       ncg     rms          rms(c)
DAV:   1     0.157481762497E+02    0.15748E+02   -0.19235E+03    96   0.409E+02
DAV:   2    -0.223648496423E+02   -0.38113E+02   -0.38113E+02    64   0.114E+02
DAV:   3    -0.271862543944E+02   -0.48214E+01   -0.48214E+01    64   0.468E+01
DAV:   4    -0.273948440367E+02   -0.20859E+00   -0.20859E+00   128   0.110E+01
DAV:   5    -0.273949147681E+02   -0.70731E-04   -0.70731E-04    96   0.225E-01    0.854E+00
RMM:   6    -0.246140277260E+02    0.27809E+01   -0.51444E+00    64   0.138E+01    0.422E+00
RMM:   7    -0.241429667740E+02    0.47106E+00   -0.11215E+00    64   0.610E+00    0.225E+00
RMM:   8    -0.239982801310E+02    0.14469E+00   -0.16315E-01    64   0.287E+00    0.229E-01
RMM:   9    -0.239927168900E+02    0.55632E-02   -0.10909E-02    64   0.689E-01    0.193E-01
RMM:  10    -0.239864226230E+02    0.62943E-02   -0.24332E-02    64   0.846E-01    0.273E-01
RMM:  11    -0.239872588103E+02   -0.83619E-03   -0.87148E-03    64   0.577E-01    0.921E-02
RMM:  12    -0.239965779275E+02   -0.93191E-02   -0.30636E-03    64   0.339E-01    0.120E-01
RMM:  13    -0.239971007380E+02   -0.52281E-03   -0.95828E-04    64   0.170E-01    0.459E-02
RMM:  14    -0.239999969427E+02   -0.28962E-02   -0.13506E-03    64   0.224E-01    0.317E-02
RMM:  15    -0.240001910859E+02   -0.19414E-03   -0.41519E-05    64   0.423E-02    0.230E-02
RMM:  16    -0.240004340178E+02   -0.24293E-03   -0.21663E-04    64   0.854E-02    0.125E-02
RMM:  17    -0.240004561172E+02   -0.22099E-04   -0.26951E-05    64   0.305E-02    0.172E-03
RMM:  18    -0.240004754531E+02   -0.19336E-04   -0.30909E-06    60   0.122E-02    0.176E-03
RMM:  19    -0.240004779843E+02   -0.25312E-05   -0.41831E-07    48   0.428E-03    0.509E-04
RMM:  20    -0.240004799978E+02   -0.20134E-05   -0.36865E-07    48   0.398E-03    0.419E-04
RMM:  21    -0.240004802972E+02   -0.29940E-06   -0.55060E-08    44   0.197E-03
    1 T=     1. E= -.24000027E+02 F= -.24000480E+02 E0= -.24000480E+02  EK= 0.45330E-03 SP= 0.00E+00 SK= 0.00E+00
 bond charge predicted
       N       E                     dE             d eps       ncg     rms          rms(c)
DAV:   1    -0.240040118738E+02   -0.35319E-02   -0.37375E-03    64   0.563E-01    0.274E-02
RMM:   2    -0.240040056293E+02    0.62445E-05   -0.91881E-05    64   0.800E-02    0.156E-02
RMM:   3    -0.240040039003E+02    0.17290E-05   -0.24765E-05    64   0.337E-02    0.471E-03
RMM:   4    -0.240040036078E+02    0.29255E-06   -0.56523E-07    48   0.702E-03
    2 T=     8. E= -.24000087E+02 F= -.24004004E+02 E0= -.24004004E+02  EK= 0.39167E-02 SP= 0.00E+00 SK= 0.00E+00
 bond charge predicted
 prediction of wavefunctions
       N       E                     dE             d eps       ncg     rms          rms(c)
DAV:   1    -0.240101158312E+02   -0.61119E-02   -0.31800E-03    64   0.534E-01    0.116E-02
RMM:   2    -0.240101273302E+02   -0.11499E-04   -0.12189E-04    64   0.950E-02    0.417E-03
RMM:   3    -0.240101280610E+02   -0.73076E-06   -0.42259E-06    56   0.175E-02    0.419E-03
RMM:   4    -0.240101283872E+02   -0.32621E-06   -0.74455E-07    48   0.777E-03
    3 T=    19. E= -.24000191E+02 F= -.24010128E+02 E0= -.24010128E+02  EK= 0.99376E-02 SP= 0.00E+00 SK= 0.00E+00
 bond charge predicted
 prediction of wavefunctions
       N       E                     dE             d eps       ncg     rms          rms(c)
DAV:   1    -0.240172149304E+02   -0.70869E-02   -0.10221E-03    64   0.260E-01    0.104E-02
RMM:   2    -0.240172143540E+02    0.57646E-06   -0.36378E-05    64   0.533E-02    0.667E-03
RMM:   3    -0.240172145839E+02   -0.22998E-06   -0.15259E-05    64   0.229E-02    0.198E-03
RMM:   4    -0.240172147946E+02   -0.21066E-06   -0.53342E-07    48   0.569E-03
    4 T=    33. E= -.24000318E+02 F= -.24017215E+02 E0= -.24017215E+02  EK= 0.16897E-01 SP= 0.00E+00 SK= 0.00E+00
 bond charge predicted
 prediction of wavefunctions
       N       E                     dE             d eps       ncg     rms          rms(c)
DAV:   1    -0.240232659889E+02   -0.60514E-02   -0.14292E-03    64   0.312E-01    0.582E-03
RMM:   2    -0.240232690975E+02   -0.31086E-05   -0.11795E-05    64   0.284E-02    0.263E-03
RMM:   3    -0.240232717353E+02   -0.26379E-05   -0.10243E-06    48   0.865E-03    0.121E-03
RMM:   4    -0.240232747521E+02   -0.30167E-05   -0.34383E-07    48   0.434E-03    0.403E-04
RMM:   5    -0.240232778843E+02   -0.31322E-05   -0.28119E-07    46   0.294E-03    0.303E-04
RMM:   6    -0.240232805104E+02   -0.26262E-05   -0.26581E-07    46   0.261E-03    0.976E-05
RMM:   7    -0.240232810912E+02   -0.58072E-06   -0.29294E-08    36   0.154E-03
    5 T=    44. E= -.24000435E+02 F= -.24023281E+02 E0= -.24023281E+02  EK= 0.22846E-01 SP= 0.00E+00 SK= 0.00E+00
 bond charge predicted
 prediction of wavefunctions
       N       E                     dE             d eps       ncg     rms          rms(c)
DAV:   1    -0.240265369339E+02   -0.32564E-02   -0.17384E-03    80   0.354E-01    0.865E-03
RMM:   2    -0.240265374426E+02   -0.50869E-06   -0.12370E-05    64   0.341E-02    0.390E-03
RMM:   3    -0.240265403306E+02   -0.28880E-05   -0.60087E-06    62   0.156E-02    0.132E-03
RMM:   4    -0.240265412408E+02   -0.91019E-06   -0.24757E-07    48   0.405E-03
    6 T=    50. E= -.24000504E+02 F= -.24026541E+02 E0= -.24026541E+02  EK= 0.26037E-01 SP= 0.00E+00 SK= 0.00E+00
 bond charge predicted
 prediction of wavefunctions
       N       E                     dE             d eps       ncg     rms          rms(c)
DAV:   1    -0.240259805997E+02    0.55973E-03   -0.16919E-03    64   0.376E-01    0.322E-03
RMM:   2    -0.240259845742E+02   -0.39745E-05   -0.16143E-05    64   0.441E-02    0.162E-03
RMM:   3    -0.240259869005E+02   -0.23263E-05   -0.49584E-07    48   0.666E-03    0.946E-04
RMM:   4    -0.240259903469E+02   -0.34464E-05   -0.29417E-07    48   0.414E-03    0.368E-04
RMM:   5    -0.240259933915E+02   -0.30445E-05   -0.89591E-08    48   0.220E-03    0.195E-04
RMM:   6    -0.240259960039E+02   -0.26125E-05   -0.11649E-07    44   0.186E-03    0.312E-04
RMM:   7    -0.240259969727E+02   -0.96878E-06   -0.86642E-08    48   0.189E-03
    7 T=    49. E= -.24000504E+02 F= -.24025997E+02 E0= -.24025997E+02  EK= 0.25493E-01 SP= 0.00E+00 SK= 0.00E+00
 bond charge predicted
 prediction of wavefunctions
       N       E                     dE             d eps       ncg     rms          rms(c)
DAV:   1    -0.240218257179E+02    0.41703E-02   -0.14363E-03    64   0.366E-01    0.754E-03
RMM:   2    -0.240218286011E+02   -0.28832E-05   -0.26899E-05    64   0.609E-02    0.445E-03
RMM:   3    -0.240218304272E+02   -0.18260E-05   -0.33885E-06    60   0.121E-02    0.137E-03
RMM:   4    -0.240218320121E+02   -0.15850E-05   -0.24550E-07    48   0.455E-03    0.887E-04
RMM:   5    -0.240218340702E+02   -0.20581E-05   -0.12416E-07    48   0.270E-03    0.334E-04
RMM:   6    -0.240218355205E+02   -0.14503E-05   -0.14737E-07    48   0.231E-03    0.232E-04
RMM:   7    -0.240218363515E+02   -0.83100E-06   -0.84025E-08    44   0.170E-03
    8 T=    41. E= -.24000415E+02 F= -.24021836E+02 E0= -.24021836E+02  EK= 0.21421E-01 SP= 0.00E+00 SK= 0.00E+00
 bond charge predicted
 prediction of wavefunctions
       N       E                     dE             d eps       ncg     rms          rms(c)
DAV:   1    -0.240155480797E+02    0.62874E-02   -0.10062E-03    64   0.318E-01    0.369E-03
RMM:   2    -0.240155516514E+02   -0.35717E-05   -0.22876E-05    64   0.567E-02    0.223E-03
RMM:   3    -0.240155524398E+02   -0.78834E-06   -0.39487E-07    48   0.476E-03    0.171E-03
RMM:   4    -0.240155544511E+02   -0.20113E-05   -0.72279E-08    44   0.260E-03    0.302E-04
RMM:   5    -0.240155551156E+02   -0.66454E-06   -0.30930E-08    40   0.155E-03
    9 T=    30. E= -.24000267E+02 F= -.24015555E+02 E0= -.24015555E+02  EK= 0.15288E-01 SP= 0.00E+00 SK= 0.00E+00
 bond charge predicted
 prediction of wavefunctions
       N       E                     dE             d eps       ncg     rms          rms(c)
DAV:   1    -0.240095216060E+02    0.60328E-02   -0.49181E-04    96   0.245E-01    0.350E-03
RMM:   2    -0.240095233778E+02   -0.17718E-05   -0.16129E-05    64   0.466E-02    0.226E-03
RMM:   3    -0.240095235683E+02   -0.19049E-06   -0.23315E-07    48   0.459E-03    0.180E-03
RMM:   4    -0.240095242376E+02   -0.66933E-06   -0.98166E-08    48   0.310E-03
   10 T=    18. E= -.24000116E+02 F= -.24009524E+02 E0= -.24009524E+02  EK= 0.94083E-02 SP= 0.00E+00 SK= 0.00E+00
 bond charge predicted
 prediction of wavefunctions
 wavefunctions rotated
