 vasp.5.4.4.18Apr17-6-g9f103f2a35 (build Nov 25 2021 15:25:00) complex          
  
 executed on             LinuxIFC date 2022.02.21  10:17:00
 running on   16 total cores
 distrk:  each k-point on   16 cores,    1 groups
 distr:  one band on NCORES_PER_BAND=   4 cores,    4 groups


--------------------------------------------------------------------------------------------------------


 INCAR:
 POTCAR:    PAW_PBE H 15Jun2001                   
 POTCAR:    PAW_PBE C 08Apr2002                   
 POTCAR:    PAW_PBE H 15Jun2001                   
   VRHFIN =H: ultrasoft test                                                    
   LEXCH  = PE                                                                  
   EATOM  =    12.4884 eV,    0.9179 Ry                                         
                                                                                
   TITEL  = PAW_PBE H 15Jun2001                                                 
   LULTRA =        F    use ultrasoft PP ?                                      
   IUNSCR =        0    unscreen: 0-lin 1-nonlin 2-no                           
   RPACOR =    0.000    partial core radius                                     
   POMASS =    1.000; ZVAL   =    1.000    mass and valenz                      
   RCORE  =    1.100    outmost cutoff radius                                   
   RWIGS  =    0.700; RWIGS  =    0.370    wigner-seitz radius (au A)           
   ENMAX  =  250.000; ENMIN  =  200.000 eV                                      
   RCLOC  =    0.701    cutoff for local pot                                    
   LCOR   =        T    correct aug charges                                     
   LPAW   =        T    paw PP                                                  
   EAUG   =  400.000                                                            
   RMAX   =    1.123    core radius for proj-oper                               
   RAUG   =    1.200    factor for augmentation sphere                          
   RDEP   =    1.112    radius for radial grids                                 
   RDEPT  =    0.926    core radius for aug-charge                              
                                                                                
   Atomic configuration                                                         
    2 entries                                                                   
     n  l   j            E        occ.                                          
     1  0  0.50        -6.4927   1.0000                                         
     2  1  0.50        -3.4015   0.0000                                         
   Description                                                                  
     l       E           TYP  RCUT    TYP  RCUT                                 
     0     -6.4927494     23  1.100                                             
     0      6.8029130     23  1.100                                             
     1     -4.0817478     23  1.100                                             
  local pseudopotential read in
  atomic valenz-charges read in
  non local Contribution for L=           0  read in
    real space projection operators read in
  non local Contribution for L=           0  read in
    real space projection operators read in
  non local Contribution for L=           1  read in
    real space projection operators read in
    PAW grid and wavefunctions read in
 
   number of l-projection  operators is LMAX  =           3
   number of lm-projection operators is LMMAX =           5
 
 POTCAR:    PAW_PBE C 08Apr2002                   
   VRHFIN =C: s2p2                                                              
   LEXCH  = PE                                                                  
   EATOM  =   147.1560 eV,   10.8157 Ry                                         
                                                                                
   TITEL  = PAW_PBE C 08Apr2002                                                 
   LULTRA =        F    use ultrasoft PP ?                                      
   IUNSCR =        1    unscreen: 0-lin 1-nonlin 2-no                           
   RPACOR =    1.200    partial core radius                                     
   POMASS =   12.011; ZVAL   =    4.000    mass and valenz                      
   RCORE  =    1.500    outmost cutoff radius                                   
   RWIGS  =    1.630; RWIGS  =    0.863    wigner-seitz radius (au A)           
   ENMAX  =  400.000; ENMIN  =  300.000 eV                                      
   ICORE  =        2    local potential                                         
   LCOR   =        T    correct aug charges                                     
   LPAW   =        T    paw PP                                                  
   EAUG   =  644.873                                                            
   DEXC   =    0.000                                                            
   RMAX   =    1.529    core radius for proj-oper                               
   RAUG   =    1.300    factor for augmentation sphere                          
   RDEP   =    1.501    radius for radial grids                                 
   RDEPT  =    1.300    core radius for aug-charge                              
                                                                                
   Atomic configuration                                                         
    4 entries                                                                   
     n  l   j            E        occ.                                          
     1  0  0.50      -273.3789   2.0000                                         
     2  0  0.50       -13.7508   2.0000                                         
     2  1  0.50        -5.2854   2.0000                                         
     3  2  1.50        -5.4423   0.0000                                         
   Description                                                                  
     l       E           TYP  RCUT    TYP  RCUT                                 
     0    -13.7508458     23  1.200                                             
     0     -8.2022199     23  1.200                                             
     1     -5.2854383     23  1.500                                             
     1     34.0145650     23  1.500                                             
     2     -5.4423304      7  1.500                                             
  local pseudopotential read in
  partial core-charges read in
  partial kinetic energy density read in
  atomic valenz-charges read in
  non local Contribution for L=           0  read in
    real space projection operators read in
  non local Contribution for L=           0  read in
    real space projection operators read in
  non local Contribution for L=           1  read in
    real space projection operators read in
  non local Contribution for L=           1  read in
    real space projection operators read in
    PAW grid and wavefunctions read in
 
   number of l-projection  operators is LMAX  =           4
   number of lm-projection operators is LMMAX =           8
 
  PAW_PBE H 15Jun2001                   :
 energy of atom  1       EATOM=  -12.4884
 kinetic energy error for atom=    0.0098 (will be added to EATOM!!)
  PAW_PBE C 08Apr2002                   :
 energy of atom  2       EATOM= -147.1560
 kinetic energy error for atom=    0.0288 (will be added to EATOM!!)
 
 
 POSCAR:  H  C                                   
  positions in cartesian coordinates
  No initial velocities read in
 exchange correlation table for  LEXCH =        8
   RHO(1)=    0.500       N(1)  =     2000
   RHO(2)=  100.500       N(2)  =     4000

 VTST: version 3.2, (02/03/18)

 CHAIN: initializing optimizer
 
 OPT: Using VASP Dynamics algorithm
 CHAIN: Read ICHAIN            0
 
 POSCAR:  H  C                                   
  positions in cartesian coordinates
  No initial velocities read in
 


--------------------------------------------------------------------------------------------------------


 ion  position               nearest neighbor table
   1  0.539  0.407  0.360-   5 1.09
   2  0.395  0.481  0.438-   5 1.11
   3  0.552  0.566  0.443-   5 1.13
   4  0.528  0.417  0.540-   5 1.09
   5  0.503  0.467  0.446-   1 1.09   4 1.09   2 1.11   3 1.13
 

IMPORTANT INFORMATION: All symmetrisations will be switched off!
NOSYMM: (Re-)initialisation of all symmetry stuff for point group C_1.

 
 

Automatic generation of k-mesh.
 generate k-points for:    2    2    2
Space group operators:
 irot       det(A)        alpha          n_x          n_y          n_z        tau_x        tau_y        tau_z
    1     1.000000     0.000000     1.000000     0.000000     0.000000     0.000000     0.000000     0.000000
 
 Subroutine IBZKPT returns following result:
 ===========================================
 
 Found      4 irreducible k-points:
 
 Following reciprocal coordinates:
            Coordinates               Weight
  0.250000  0.250000  0.250000      2.000000
 -0.250000  0.250000  0.250000      2.000000
  0.250000 -0.250000  0.250000      2.000000
 -0.250000 -0.250000  0.250000      2.000000
 
 Following cartesian coordinates:
            Coordinates               Weight
  0.024541  0.024129  0.026657      2.000000
 -0.024541  0.025054  0.025332      2.000000
  0.024541 -0.025054  0.025273      2.000000
 -0.024541 -0.024129  0.023948      2.000000
 


--------------------------------------------------------------------------------------------------------




 Dimension of arrays:
   k-points           NKPTS =      4   k-points in BZ     NKDIM =      4   number of bands    NBANDS=      8
   number of dos      NEDOS =    301   number of ions     NIONS =      5
   non local maximal  LDIM  =      4   non local SUM 2l+1 LMDIM =      8
   total plane-waves  NPLWV = 343000
   max r-space proj   IRMAX =      1   max aug-charges    IRDMAX=   4155
   dimension x,y,z NGX =    70 NGY =   70 NGZ =   70
   dimension x,y,z NGXF=   140 NGYF=  140 NGZF=  140
   support grid    NGXF=   140 NGYF=  140 NGZF=  140
   ions per type =               4   1
   NGX,Y,Z   is equivalent  to a cutoff of  11.42, 11.45, 11.77 a.u.
   NGXF,Y,Z  is equivalent  to a cutoff of  22.85, 22.89, 23.54 a.u.

 SYSTEM =  unknown system                          
 POSCAR =   H  C                                   

 Startparameter for this run:
   NWRITE =      2    write-flag & timer
   PREC   = a         normal or accurate (medium, high low for compatibility)
   ISTART =      0    job   : 0-new  1-cont  2-samecut
   ICHARG =      2    charge: 1-file 2-atom 10-const
   ISPIN  =      1    spin polarized calculation?
   LNONCOLLINEAR =      F non collinear calculations
   LSORBIT =      F    spin-orbit coupling
   INIWAV =      1    electr: 0-lowe 1-rand  2-diag
   LASPH  =      F    aspherical Exc in radial PAW
   METAGGA=      F    non-selfconsistent MetaGGA calc.

 Electronic Relaxation 1
   ENCUT  =  400.0 eV  29.40 Ry    5.42 a.u.  16.61 16.58 16.13*2*pi/ulx,y,z
   ENINI  =  400.0     initial cutoff
   ENAUG  =  644.9 eV  augmentation charge cutoff
   NELM   =    120;   NELMIN=  4; NELMDL= -5     # of ELM steps 
   EDIFF  = 0.1E-05   stopping-criterion for ELM
   LREAL  =      F    real-space projection
   NLSPLINE    = F    spline interpolate recip. space projectors
   LCOMPAT=      F    compatible to vasp.4.4
   GGA_COMPAT  = T    GGA compatible to vasp.4.4-vasp.4.6
   LMAXPAW     = -100 max onsite density
   LMAXMIX     =    2 max onsite mixed and CHGCAR
   VOSKOWN=      0    Vosko Wilk Nusair interpolation
   ROPT   =    0.00000   0.00000
 Ionic relaxation
   EDIFFG = 0.1E-04   stopping-criterion for IOM
   NSW    =     10    number of steps for IOM
   NBLOCK =      1;   KBLOCK =     10    inner block; outer block 
   IBRION =      0    ionic relax: 0-MD 1-quasi-New 2-CG
   NFREE  =      0    steps in history (QN), initial steepest desc. (CG)
   ISIF   =      2    stress and relaxation
   IWAVPR =     12    prediction:  0-non 1-charg 2-wave 3-comb
   ISYM   =      0    0-nonsym 1-usesym 2-fastsym
   LCORR  =      T    Harris-Foulkes like correction to forces

   POTIM  = 0.5000    time-step for ionic-motion
   TEIN   =    0.0    initial temperature
   TEBEG  =    0.0;   TEEND  =   0.0 temperature during run
   SMASS  =  -3.00    Nose mass-parameter (am)
   estimated Nose-frequenzy (Omega)   =  0.10E-29 period in steps =****** mass=  -0.237E-26a.u.
   SCALEE = 1.0000    scale energy and forces
   NPACO  =    256;   APACO  = 16.0  distance and # of slots for P.C.
   PSTRESS=    0.0 pullay stress

  Mass of Ions in am
   POMASS =   1.00 12.01
  Ionic Valenz
   ZVAL   =   1.00  4.00
  Atomic Wigner-Seitz radii
   RWIGS  =  -1.00 -1.00
  virtual crystal weights 
   VCA    =   1.00  1.00
   NELECT =       8.0000    total number of electrons
   NUPDOWN=      -1.0000    fix difference up-down

 DOS related values:
   EMIN   =  10.00;   EMAX   =-10.00  energy-range for DOS
   EFERMI =   0.00
   ISMEAR =     0;   SIGMA  =   0.20  broadening in eV -4-tet -1-fermi 0-gaus

 Electronic relaxation 2 (details)
   IALGO  =     68    algorithm
   LDIAG  =      T    sub-space diagonalisation (order eigenvalues)
   LSUBROT=      F    optimize rotation matrix (better conditioning)
   TURBO    =      0    0=normal 1=particle mesh
   IRESTART =      0    0=no restart 2=restart with 2 vectors
   NREBOOT  =      0    no. of reboots
   NMIN     =      0    reboot dimension
   EREF     =   0.00    reference energy to select bands
   IMIX   =      4    mixing-type and parameters
     AMIX     =   0.40;   BMIX     =  1.00
     AMIX_MAG =   1.60;   BMIX_MAG =  1.00
     AMIN     =   0.10
     WC   =   100.;   INIMIX=   1;  MIXPRE=   1;  MAXMIX= -45

 Intra band minimization:
   WEIMIN = 0.0010     energy-eigenvalue tresh-hold
   EBREAK =  0.31E-07  absolut break condition
   DEPER  =   0.30     relativ break condition  

   TIME   =   0.40     timestep for ELM

  volume/ion in A,a.u.               =     204.65      1381.02
  Fermi-wavevector in a.u.,A,eV,Ry     =   0.324923  0.614016  1.436436  0.105575
  Thomas-Fermi vector in A             =   1.215470
 
 Write flags
   LWAVE        =      F    write WAVECAR
   LDOWNSAMPLE  =      F    k-point downsampling of WAVECAR
   LCHARG       =      F    write CHGCAR
   LVTOT        =      F    write LOCPOT, total local potential
   LVHAR        =      F    write LOCPOT, Hartree potential only
   LELF         =      F    write electronic localiz. function (ELF)
   LORBIT       =      0    0 simple, 1 ext, 2 COOP (PROOUT), +10 PAW based schemes


 Dipole corrections
   LMONO  =      F    monopole corrections only (constant potential shift)
   LDIPOL =      F    correct potential (dipole corrections)
   IDIPOL =      0    1-x, 2-y, 3-z, 4-all directions 
   EPSILON=  1.0000000 bulk dielectric constant

 Exchange correlation treatment:
   GGA     =    --    GGA type
   LEXCH   =     8    internal setting for exchange type
   VOSKOWN=      0    Vosko Wilk Nusair interpolation
   LHFCALC =     F    Hartree Fock is set to
   LHFONE  =     F    Hartree Fock one center treatment
   AEXX    =    0.0000 exact exchange contribution

 Linear response parameters
   LEPSILON=     F    determine dielectric tensor
   LRPA    =     F    only Hartree local field effects (RPA)
   LNABLA  =     F    use nabla operator in PAW spheres
   LVEL    =     F    velocity operator in full k-point grid
   LINTERFAST=   F  fast interpolation
   KINTER  =     0    interpolate to denser k-point grid
   CSHIFT  =0.1000    complex shift for real part using Kramers Kronig
   OMEGAMAX=  -1.0    maximum frequency
   DEG_THRESHOLD= 0.2000000E-02 threshold for treating states as degnerate
   RTIME   =   -0.100 relaxation time in fs
  (WPLASMAI=    0.000 imaginary part of plasma frequency in eV, 0.658/RTIME)
   DFIELD  = 0.0000000 0.0000000 0.0000000 field for delta impulse in time
 
 Orbital magnetization related:
   ORBITALMAG=     F  switch on orbital magnetization
   LCHIMAG   =     F  perturbation theory with respect to B field
   DQ        =  0.001000  dq finite difference perturbation B field
   LLRAUG    =     F  two centre corrections for induced B field



--------------------------------------------------------------------------------------------------------


 molecular dynamics for ions
   using a microcanonical ensemble
 charge density and potential will be updated during run
 non-spin polarized calculation
 RMM-DIIS sequential band-by-band and
  variant of blocked Davidson during initial phase
 perform sub-space diagonalisation
    before iterative eigenvector-optimisation
 modified Broyden-mixing scheme, WC =      100.0
 initial mixing is a Kerker type mixing with AMIX =  0.4000 and BMIX =      1.0000
 Hartree-type preconditioning will be used
 using additional bands            4
 reciprocal scheme for non local part
 use partial core corrections
 calculate Harris-corrections to forces 
   (improved forces if not selfconsistent)
 use gradient corrections 
 use of overlap-Matrix (Vanderbilt PP)
 Gauss-broadening in eV      SIGMA  =   0.20


--------------------------------------------------------------------------------------------------------


  energy-cutoff  :      400.00
  volume of cell :     1023.23
      direct lattice vectors                 reciprocal lattice vectors
    10.186896050  0.000000000  0.000000000     0.098165329 -0.001848607  0.002650140
     0.191442664 10.166052201  0.000000000     0.000000000  0.098366601  0.002767726
    -0.271975720 -0.278005679  9.880484454     0.000000000  0.000000000  0.101209612

  length of vectors
    10.186896050 10.167854624  9.888135870     0.098218493  0.098405531  0.101209612


 
 k-points in units of 2pi/SCALE and weight: read from INCAR                         
   0.02454133  0.02412950  0.02665687       0.250
  -0.02454133  0.02505380  0.02533180       0.250
   0.02454133 -0.02505380  0.02527301       0.250
  -0.02454133 -0.02412950  0.02394794       0.250
 
 k-points in reciprocal lattice and weights: read from INCAR                         
   0.25000000  0.25000000  0.25000000       0.250
  -0.25000000  0.25000000  0.25000000       0.250
   0.25000000 -0.25000000  0.25000000       0.250
  -0.25000000 -0.25000000  0.25000000       0.250
 
 position of ions in fractional coordinates (direct lattice) 
   0.53865390  0.40716467  0.36029393
   0.39489643  0.48084325  0.43804875
   0.55171230  0.56572684  0.44254446
   0.52839980  0.41687529  0.53990236
   0.50283177  0.46653180  0.44571855
 
 position of ions in cartesian coordinates  (Angst):
   5.46716881  4.03909355  3.55987859
   3.99568415  4.76649753  4.32813384
   5.60817880  5.62817870  4.37255368
   5.31572125  4.08788005  5.33449684
   5.09038440  4.61887434  4.40391517
 


--------------------------------------------------------------------------------------------------------


 k-point  1 :   0.2500 0.2500 0.2500  plane waves:   18606
 k-point  2 :  -0.2500 0.2500 0.2500  plane waves:   18590
 k-point  3 :   0.2500-0.2500 0.2500  plane waves:   18585
 k-point  4 :  -0.2500-0.2500 0.2500  plane waves:   18574

 maximum and minimum number of plane-waves per node :      4691     4615

 maximum number of plane-waves:     18606
 maximum index in each direction: 
   IXMAX=   16   IYMAX=   16   IZMAX=   15
   IXMIN=  -16   IYMIN=  -16   IZMIN=  -16


 parallel 3D FFT for wavefunctions:
    minimum data exchange during FFTs selected (reduces bandwidth)
 parallel 3D FFT for charge:
    minimum data exchange during FFTs selected (reduces bandwidth)


 total amount of memory used by VASP MPI-rank0    55455. kBytes
=======================================================================

   base      :      30000. kBytes
   nonl-proj :       2751. kBytes
   fftplans  :       8575. kBytes
   grid      :      13527. kBytes
   one-center:          6. kBytes
   wavefun   :        596. kBytes
 
     INWAV:  cpu time    0.0000: real time    0.0000
 Broyden mixing: mesh for mixing (old mesh)
   NGX = 33   NGY = 33   NGZ = 33
  (NGX  =140   NGY  =140   NGZ  =140)
  gives a total of  35937 points

 initial charge density was supplied:
 charge density of overlapping atoms calculated
 number of electron       8.0000000 magnetization 
 keeping initial charge density in first step


--------------------------------------------------------------------------------------------------------


 Maximum index for augmentation-charges          169 (set IRDMAX)


--------------------------------------------------------------------------------------------------------


 First call to EWALD:  gamma=   0.176
 Maximum number of real-space cells 3x 3x 3
 Maximum number of reciprocal cells 3x 3x 3

    FEWALD:  cpu time    0.0015: real time    0.0014


--------------------------------------- Iteration      1(   1)  ---------------------------------------


    POTLOK:  cpu time    0.1382: real time    0.1467
    SETDIJ:  cpu time    0.0034: real time    0.0037
     EDDAV:  cpu time    0.1951: real time    0.2163
       DOS:  cpu time    0.0014: real time    0.0014
    --------------------------------------------
      LOOP:  cpu time    0.3381: real time    0.3681

 eigenvalue-minimisations  :    96
 total energy-change (2. order) : 0.1574818E+02  (-0.1923521E+03)
 number of electron       8.0000000 magnetization 
 augmentation part        8.0000000 magnetization 

 Free energy of the ion-electron system (eV)
  ---------------------------------------------------
  alpha Z        PSCENC =         0.23675151
  Ewald energy   TEWEN  =       127.41746615
  -Hartree energ DENC   =      -243.73187060
  -exchange      EXHF   =         0.00000000
  -V(xc)+E(xc)   XCENC  =        21.95431285
  PAW double counting   =       117.05815612     -117.66307307
  entropy T*S    EENTRO =        -0.00000000
  eigenvalues    EBANDS =       -86.56532125
  atomic energy  EATOM  =       197.04175453
  Solvation  Ediel_sol  =         0.00000000
  ---------------------------------------------------
  free energy    TOTEN  =        15.74817625 eV

  energy without entropy =       15.74817625  energy(sigma->0) =       15.74817625


--------------------------------------------------------------------------------------------------------




--------------------------------------- Iteration      1(   2)  ---------------------------------------


     EDDAV:  cpu time    0.1432: real time    0.1432
       DOS:  cpu time    0.0002: real time    0.0002
    --------------------------------------------
      LOOP:  cpu time    0.1433: real time    0.1434

 eigenvalue-minimisations  :    64
 total energy-change (2. order) :-0.3811303E+02  (-0.3811303E+02)
 number of electron       8.0000000 magnetization 
 augmentation part        8.0000000 magnetization 

 Free energy of the ion-electron system (eV)
  ---------------------------------------------------
  alpha Z        PSCENC =         0.23675151
  Ewald energy   TEWEN  =       127.41746615
  -Hartree energ DENC   =      -243.73187060
  -exchange      EXHF   =         0.00000000
  -V(xc)+E(xc)   XCENC  =        21.95431285
  PAW double counting   =       117.05815612     -117.66307307
  entropy T*S    EENTRO =        -0.00000000
  eigenvalues    EBANDS =      -124.67834714
  atomic energy  EATOM  =       197.04175453
  Solvation  Ediel_sol  =         0.00000000
  ---------------------------------------------------
  free energy    TOTEN  =       -22.36484964 eV

  energy without entropy =      -22.36484964  energy(sigma->0) =      -22.36484964


--------------------------------------------------------------------------------------------------------




--------------------------------------- Iteration      1(   3)  ---------------------------------------


     EDDAV:  cpu time    0.1450: real time    0.1450
       DOS:  cpu time    0.0005: real time    0.0005
    --------------------------------------------
      LOOP:  cpu time    0.1455: real time    0.1455

 eigenvalue-minimisations  :    64
 total energy-change (2. order) :-0.4821405E+01  (-0.4821405E+01)
 number of electron       8.0000000 magnetization 
 augmentation part        8.0000000 magnetization 

 Free energy of the ion-electron system (eV)
  ---------------------------------------------------
  alpha Z        PSCENC =         0.23675151
  Ewald energy   TEWEN  =       127.41746615
  -Hartree energ DENC   =      -243.73187060
  -exchange      EXHF   =         0.00000000
  -V(xc)+E(xc)   XCENC  =        21.95431285
  PAW double counting   =       117.05815612     -117.66307307
  entropy T*S    EENTRO =        -0.00000000
  eigenvalues    EBANDS =      -129.49975189
  atomic energy  EATOM  =       197.04175453
  Solvation  Ediel_sol  =         0.00000000
  ---------------------------------------------------
  free energy    TOTEN  =       -27.18625439 eV

  energy without entropy =      -27.18625439  energy(sigma->0) =      -27.18625439


--------------------------------------------------------------------------------------------------------




--------------------------------------- Iteration      1(   4)  ---------------------------------------


     EDDAV:  cpu time    0.2397: real time    0.2397
       DOS:  cpu time    0.0002: real time    0.0002
    --------------------------------------------
      LOOP:  cpu time    0.2399: real time    0.2399

 eigenvalue-minimisations  :   128
 total energy-change (2. order) :-0.2085896E+00  (-0.2085896E+00)
 number of electron       8.0000000 magnetization 
 augmentation part        8.0000000 magnetization 

 Free energy of the ion-electron system (eV)
  ---------------------------------------------------
  alpha Z        PSCENC =         0.23675151
  Ewald energy   TEWEN  =       127.41746615
  -Hartree energ DENC   =      -243.73187060
  -exchange      EXHF   =         0.00000000
  -V(xc)+E(xc)   XCENC  =        21.95431285
  PAW double counting   =       117.05815612     -117.66307307
  entropy T*S    EENTRO =        -0.00000000
  eigenvalues    EBANDS =      -129.70834153
  atomic energy  EATOM  =       197.04175453
  Solvation  Ediel_sol  =         0.00000000
  ---------------------------------------------------
  free energy    TOTEN  =       -27.39484404 eV

  energy without entropy =      -27.39484404  energy(sigma->0) =      -27.39484404


--------------------------------------------------------------------------------------------------------




--------------------------------------- Iteration      1(   5)  ---------------------------------------


     EDDAV:  cpu time    0.1905: real time    0.1905
       DOS:  cpu time    0.0002: real time    0.0002
    CHARGE:  cpu time    0.0204: real time    0.0204
    MIXING:  cpu time    0.0040: real time    0.0040
    --------------------------------------------
      LOOP:  cpu time    0.2151: real time    0.2151

 eigenvalue-minimisations  :    96
 total energy-change (2. order) :-0.7073139E-04  (-0.7073145E-04)
 number of electron       8.0000000 magnetization 
 augmentation part        0.2217040 magnetization 

 Broyden mixing:
  rms(total) = 0.85432E+00    rms(broyden)= 0.85411E+00
  rms(prec ) = 0.12098E+01
  weight for this iteration     100.00

 Free energy of the ion-electron system (eV)
  ---------------------------------------------------
  alpha Z        PSCENC =         0.23675151
  Ewald energy   TEWEN  =       127.41746615
  -Hartree energ DENC   =      -243.73187060
  -exchange      EXHF   =         0.00000000
  -V(xc)+E(xc)   XCENC  =        21.95431285
  PAW double counting   =       117.05815612     -117.66307307
  entropy T*S    EENTRO =        -0.00000000
  eigenvalues    EBANDS =      -129.70841226
  atomic energy  EATOM  =       197.04175453
  Solvation  Ediel_sol  =         0.00000000
  ---------------------------------------------------
  free energy    TOTEN  =       -27.39491477 eV

  energy without entropy =      -27.39491477  energy(sigma->0) =      -27.39491477


--------------------------------------------------------------------------------------------------------




--------------------------------------- Iteration      1(   6)  ---------------------------------------


    POTLOK:  cpu time    0.1345: real time    0.1345
    SETDIJ:  cpu time    0.0014: real time    0.0014
    EDDIAG:  cpu time    0.0388: real time    0.0478
  RMM-DIIS:  cpu time    0.1437: real time    0.1438
    ORTHCH:  cpu time    0.0017: real time    0.0017
       DOS:  cpu time    0.0002: real time    0.0002
    CHARGE:  cpu time    0.0191: real time    0.0191
    MIXING:  cpu time    0.0044: real time    0.0064
    --------------------------------------------
      LOOP:  cpu time    0.3439: real time    0.3549

 eigenvalue-minimisations  :    64
 total energy-change (2. order) : 0.2780887E+01  (-0.5144362E+00)
 number of electron       8.0000000 magnetization 
 augmentation part        0.1954155 magnetization 

 Broyden mixing:
  rms(total) = 0.42198E+00    rms(broyden)= 0.42189E+00
  rms(prec ) = 0.54637E+00
  weight for this iteration     100.00

 eigenvalues of (default mixing * dielectric matrix)
  average eigenvalue GAMMA=   1.2975
  1.2975

 Free energy of the ion-electron system (eV)
  ---------------------------------------------------
  alpha Z        PSCENC =         0.23675151
  Ewald energy   TEWEN  =       127.41746615
  -Hartree energ DENC   =      -263.07198225
  -exchange      EXHF   =         0.00000000
  -V(xc)+E(xc)   XCENC  =        23.12844290
  PAW double counting   =       235.17217169     -235.94661969
  entropy T*S    EENTRO =        -0.00000000
  eigenvalues    EBANDS =      -108.59201256
  atomic energy  EATOM  =       197.04175453
  Solvation  Ediel_sol  =         0.00000000
  ---------------------------------------------------
  free energy    TOTEN  =       -24.61402773 eV

  energy without entropy =      -24.61402773  energy(sigma->0) =      -24.61402773


--------------------------------------------------------------------------------------------------------




--------------------------------------- Iteration      1(   7)  ---------------------------------------


    POTLOK:  cpu time    0.1346: real time    0.1346
    SETDIJ:  cpu time    0.0014: real time    0.0014
    EDDIAG:  cpu time    0.0344: real time    0.0344
  RMM-DIIS:  cpu time    0.1426: real time    0.1426
    ORTHCH:  cpu time    0.0016: real time    0.0016
       DOS:  cpu time    0.0002: real time    0.0002
    CHARGE:  cpu time    0.0176: real time    0.0176
    MIXING:  cpu time    0.0042: real time    0.0042
    --------------------------------------------
      LOOP:  cpu time    0.3366: real time    0.3366

 eigenvalue-minimisations  :    64
 total energy-change (2. order) : 0.4710610E+00  (-0.1121456E+00)
 number of electron       8.0000000 magnetization 
 augmentation part        0.1853205 magnetization 

 Broyden mixing:
  rms(total) = 0.22530E+00    rms(broyden)= 0.22524E+00
  rms(prec ) = 0.27267E+00
  weight for this iteration     100.00

 eigenvalues of (default mixing * dielectric matrix)
  average eigenvalue GAMMA=   1.8392
  1.4449  2.2336

 Free energy of the ion-electron system (eV)
  ---------------------------------------------------
  alpha Z        PSCENC =         0.23675151
  Ewald energy   TEWEN  =       127.41746615
  -Hartree energ DENC   =      -274.35727590
  -exchange      EXHF   =         0.00000000
  -V(xc)+E(xc)   XCENC  =        23.96108845
  PAW double counting   =       356.19785785     -357.00855972
  entropy T*S    EENTRO =        -0.00000000
  eigenvalues    EBANDS =       -97.63204965
  atomic energy  EATOM  =       197.04175453
  Solvation  Ediel_sol  =         0.00000000
  ---------------------------------------------------
  free energy    TOTEN  =       -24.14296677 eV

  energy without entropy =      -24.14296677  energy(sigma->0) =      -24.14296677


--------------------------------------------------------------------------------------------------------




--------------------------------------- Iteration      1(   8)  ---------------------------------------


    POTLOK:  cpu time    0.1342: real time    0.1342
    SETDIJ:  cpu time    0.0015: real time    0.0015
    EDDIAG:  cpu time    0.0352: real time    0.0352
  RMM-DIIS:  cpu time    0.1461: real time    0.1461
    ORTHCH:  cpu time    0.0018: real time    0.0018
       DOS:  cpu time    0.0002: real time    0.0002
    CHARGE:  cpu time    0.0175: real time    0.0175
    MIXING:  cpu time    0.0043: real time    0.0043
    --------------------------------------------
      LOOP:  cpu time    0.3408: real time    0.3408

 eigenvalue-minimisations  :    64
 total energy-change (2. order) : 0.1446866E+00  (-0.1631507E-01)
 number of electron       8.0000000 magnetization 
 augmentation part        0.1839658 magnetization 

 Broyden mixing:
  rms(total) = 0.22864E-01    rms(broyden)= 0.22843E-01
  rms(prec ) = 0.52323E-01
  weight for this iteration     100.00

 eigenvalues of (default mixing * dielectric matrix)
  average eigenvalue GAMMA=   1.5421
  2.2478  0.9840  1.3944

 Free energy of the ion-electron system (eV)
  ---------------------------------------------------
  alpha Z        PSCENC =         0.23675151
  Ewald energy   TEWEN  =       127.41746615
  -Hartree energ DENC   =      -279.74619562
  -exchange      EXHF   =         0.00000000
  -V(xc)+E(xc)   XCENC  =        24.49595286
  PAW double counting   =       461.21415908     -461.99337956
  entropy T*S    EENTRO =        -0.00000000
  eigenvalues    EBANDS =       -92.66478908
  atomic energy  EATOM  =       197.04175453
  Solvation  Ediel_sol  =         0.00000000
  ---------------------------------------------------
  free energy    TOTEN  =       -23.99828013 eV

  energy without entropy =      -23.99828013  energy(sigma->0) =      -23.99828013


--------------------------------------------------------------------------------------------------------




--------------------------------------- Iteration      1(   9)  ---------------------------------------


    POTLOK:  cpu time    0.1336: real time    0.1336
    SETDIJ:  cpu time    0.0014: real time    0.0014
    EDDIAG:  cpu time    0.0340: real time    0.0340
  RMM-DIIS:  cpu time    0.1448: real time    0.1448
    ORTHCH:  cpu time    0.0015: real time    0.0015
       DOS:  cpu time    0.0002: real time    0.0002
    CHARGE:  cpu time    0.0173: real time    0.0173
    MIXING:  cpu time    0.0046: real time    0.0056
    --------------------------------------------
      LOOP:  cpu time    0.3375: real time    0.3385

 eigenvalue-minimisations  :    64
 total energy-change (2. order) : 0.5563241E-02  (-0.1090942E-02)
 number of electron       8.0000000 magnetization 
 augmentation part        0.1834091 magnetization 

 Broyden mixing:
  rms(total) = 0.19336E-01    rms(broyden)= 0.19332E-01
  rms(prec ) = 0.39966E-01
  weight for this iteration     100.00

 eigenvalues of (default mixing * dielectric matrix)
  average eigenvalue GAMMA=   2.0831
  1.0033  1.3623  2.9833  2.9833

 Free energy of the ion-electron system (eV)
  ---------------------------------------------------
  alpha Z        PSCENC =         0.23675151
  Ewald energy   TEWEN  =       127.41746615
  -Hartree energ DENC   =      -280.98316066
  -exchange      EXHF   =         0.00000000
  -V(xc)+E(xc)   XCENC  =        24.56343315
  PAW double counting   =       463.99536156     -464.77734611
  entropy T*S    EENTRO =        -0.00000000
  eigenvalues    EBANDS =       -91.48697701
  atomic energy  EATOM  =       197.04175453
  Solvation  Ediel_sol  =         0.00000000
  ---------------------------------------------------
  free energy    TOTEN  =       -23.99271689 eV

  energy without entropy =      -23.99271689  energy(sigma->0) =      -23.99271689


--------------------------------------------------------------------------------------------------------




--------------------------------------- Iteration      1(  10)  ---------------------------------------


    POTLOK:  cpu time    0.1288: real time    0.1288
    SETDIJ:  cpu time    0.0014: real time    0.0014
    EDDIAG:  cpu time    0.0344: real time    0.0344
  RMM-DIIS:  cpu time    0.1452: real time    0.1452
    ORTHCH:  cpu time    0.0014: real time    0.0014
       DOS:  cpu time    0.0002: real time    0.0002
    CHARGE:  cpu time    0.0172: real time    0.0172
    MIXING:  cpu time    0.0045: real time    0.0045
    --------------------------------------------
      LOOP:  cpu time    0.3332: real time    0.3332

 eigenvalue-minimisations  :    64
 total energy-change (2. order) : 0.6294267E-02  (-0.2433160E-02)
 number of electron       8.0000000 magnetization 
 augmentation part        0.1823797 magnetization 

 Broyden mixing:
  rms(total) = 0.27270E-01    rms(broyden)= 0.27268E-01
  rms(prec ) = 0.34927E-01
  weight for this iteration     100.00

 eigenvalues of (default mixing * dielectric matrix)
  average eigenvalue GAMMA=   1.7863
  3.0702  2.4064  1.2358  1.2358  0.9834

 Free energy of the ion-electron system (eV)
  ---------------------------------------------------
  alpha Z        PSCENC =         0.23675151
  Ewald energy   TEWEN  =       127.41746615
  -Hartree energ DENC   =      -283.15402126
  -exchange      EXHF   =         0.00000000
  -V(xc)+E(xc)   XCENC  =        24.63342051
  PAW double counting   =       448.70599888     -449.49137029
  entropy T*S    EENTRO =        -0.00000000
  eigenvalues    EBANDS =       -89.37642264
  atomic energy  EATOM  =       197.04175453
  Solvation  Ediel_sol  =         0.00000000
  ---------------------------------------------------
  free energy    TOTEN  =       -23.98642262 eV

  energy without entropy =      -23.98642262  energy(sigma->0) =      -23.98642262


--------------------------------------------------------------------------------------------------------




--------------------------------------- Iteration      1(  11)  ---------------------------------------


    POTLOK:  cpu time    0.1288: real time    0.1288
    SETDIJ:  cpu time    0.0014: real time    0.0014
    EDDIAG:  cpu time    0.0338: real time    0.0338
  RMM-DIIS:  cpu time    0.1432: real time    0.1432
    ORTHCH:  cpu time    0.0014: real time    0.0014
       DOS:  cpu time    0.0002: real time    0.0002
    CHARGE:  cpu time    0.0181: real time    0.0181
    MIXING:  cpu time    0.0047: real time    0.0047
    --------------------------------------------
      LOOP:  cpu time    0.3316: real time    0.3316

 eigenvalue-minimisations  :    64
 total energy-change (2. order) :-0.8361873E-03  (-0.8714776E-03)
 number of electron       8.0000000 magnetization 
 augmentation part        0.1827606 magnetization 

 Broyden mixing:
  rms(total) = 0.92104E-02    rms(broyden)= 0.92072E-02
  rms(prec ) = 0.14841E-01
  weight for this iteration     100.00

 eigenvalues of (default mixing * dielectric matrix)
  average eigenvalue GAMMA=   2.2824
  4.8813  3.0873  2.4290  1.2648  1.0159  1.0159

 Free energy of the ion-electron system (eV)
  ---------------------------------------------------
  alpha Z        PSCENC =         0.23675151
  Ewald energy   TEWEN  =       127.41746615
  -Hartree energ DENC   =      -283.05088150
  -exchange      EXHF   =         0.00000000
  -V(xc)+E(xc)   XCENC  =        24.64804576
  PAW double counting   =       457.67234441     -458.45006125
  entropy T*S    EENTRO =        -0.00000000
  eigenvalues    EBANDS =       -89.50267841
  atomic energy  EATOM  =       197.04175453
  Solvation  Ediel_sol  =         0.00000000
  ---------------------------------------------------
  free energy    TOTEN  =       -23.98725881 eV

  energy without entropy =      -23.98725881  energy(sigma->0) =      -23.98725881


--------------------------------------------------------------------------------------------------------




--------------------------------------- Iteration      1(  12)  ---------------------------------------


    POTLOK:  cpu time    0.1237: real time    0.1237
    SETDIJ:  cpu time    0.0014: real time    0.0014
    EDDIAG:  cpu time    0.0337: real time    0.0337
  RMM-DIIS:  cpu time    0.1436: real time    0.1437
    ORTHCH:  cpu time    0.0015: real time    0.0015
       DOS:  cpu time    0.0002: real time    0.0002
    CHARGE:  cpu time    0.0173: real time    0.0173
    MIXING:  cpu time    0.0048: real time    0.0048
    --------------------------------------------
      LOOP:  cpu time    0.3264: real time    0.3264

 eigenvalue-minimisations  :    64
 total energy-change (2. order) :-0.9319117E-02  (-0.3063576E-03)
 number of electron       8.0000000 magnetization 
 augmentation part        0.1829492 magnetization 

 Broyden mixing:
  rms(total) = 0.11955E-01    rms(broyden)= 0.11954E-01
  rms(prec ) = 0.15690E-01
  weight for this iteration     100.00

 eigenvalues of (default mixing * dielectric matrix)
  average eigenvalue GAMMA=   2.0184
  4.8386  2.9433  2.4237  1.2144  1.0144  1.0144  0.6800

 Free energy of the ion-electron system (eV)
  ---------------------------------------------------
  alpha Z        PSCENC =         0.23675151
  Ewald energy   TEWEN  =       127.41746615
  -Hartree energ DENC   =      -283.26818856
  -exchange      EXHF   =         0.00000000
  -V(xc)+E(xc)   XCENC  =        24.63980354
  PAW double counting   =       454.40256477     -455.17958986
  entropy T*S    EENTRO =        -0.00000000
  eigenvalues    EBANDS =       -89.28714001
  atomic energy  EATOM  =       197.04175453
  Solvation  Ediel_sol  =         0.00000000
  ---------------------------------------------------
  free energy    TOTEN  =       -23.99657793 eV

  energy without entropy =      -23.99657793  energy(sigma->0) =      -23.99657793


--------------------------------------------------------------------------------------------------------




--------------------------------------- Iteration      1(  13)  ---------------------------------------


    POTLOK:  cpu time    0.1219: real time    0.1219
    SETDIJ:  cpu time    0.0015: real time    0.0015
    EDDIAG:  cpu time    0.0335: real time    0.0335
  RMM-DIIS:  cpu time    0.1438: real time    0.1438
    ORTHCH:  cpu time    0.0015: real time    0.0015
       DOS:  cpu time    0.0002: real time    0.0002
    CHARGE:  cpu time    0.0174: real time    0.0174
    MIXING:  cpu time    0.0050: real time    0.0050
    --------------------------------------------
      LOOP:  cpu time    0.3247: real time    0.3247

 eigenvalue-minimisations  :    64
 total energy-change (2. order) :-0.5228105E-03  (-0.9582794E-04)
 number of electron       8.0000000 magnetization 
 augmentation part        0.1827121 magnetization 

 Broyden mixing:
  rms(total) = 0.45941E-02    rms(broyden)= 0.45939E-02
  rms(prec ) = 0.63969E-02
  weight for this iteration     100.00

 eigenvalues of (default mixing * dielectric matrix)
  average eigenvalue GAMMA=   2.4375
  6.1516  4.1610  2.4420  2.4420  1.2125  1.2125  0.9919  0.8870

 Free energy of the ion-electron system (eV)
  ---------------------------------------------------
  alpha Z        PSCENC =         0.23675151
  Ewald energy   TEWEN  =       127.41746615
  -Hartree energ DENC   =      -283.44159810
  -exchange      EXHF   =         0.00000000
  -V(xc)+E(xc)   XCENC  =        24.64447079
  PAW double counting   =       454.17514336     -454.95444394
  entropy T*S    EENTRO =        -0.00000000
  eigenvalues    EBANDS =       -89.11664502
  atomic energy  EATOM  =       197.04175453
  Solvation  Ediel_sol  =         0.00000000
  ---------------------------------------------------
  free energy    TOTEN  =       -23.99710074 eV

  energy without entropy =      -23.99710074  energy(sigma->0) =      -23.99710074


--------------------------------------------------------------------------------------------------------




--------------------------------------- Iteration      1(  14)  ---------------------------------------


    POTLOK:  cpu time    0.1197: real time    0.1197
    SETDIJ:  cpu time    0.0014: real time    0.0014
    EDDIAG:  cpu time    0.0334: real time    0.0334
  RMM-DIIS:  cpu time    0.1433: real time    0.1433
    ORTHCH:  cpu time    0.0014: real time    0.0014
       DOS:  cpu time    0.0002: real time    0.0002
    CHARGE:  cpu time    0.0172: real time    0.0172
    MIXING:  cpu time    0.0051: real time    0.0051
    --------------------------------------------
      LOOP:  cpu time    0.3218: real time    0.3218

 eigenvalue-minimisations  :    64
 total energy-change (2. order) :-0.2896205E-02  (-0.1350630E-03)
 number of electron       8.0000000 magnetization 
 augmentation part        0.1825852 magnetization 

 Broyden mixing:
  rms(total) = 0.31743E-02    rms(broyden)= 0.31727E-02
  rms(prec ) = 0.41119E-02
  weight for this iteration     100.00

 eigenvalues of (default mixing * dielectric matrix)
  average eigenvalue GAMMA=   2.3041
  6.4453  4.1463  2.5715  2.3793  1.1712  1.1712  1.0195  0.9162  0.9162

 Free energy of the ion-electron system (eV)
  ---------------------------------------------------
  alpha Z        PSCENC =         0.23675151
  Ewald energy   TEWEN  =       127.41746615
  -Hartree energ DENC   =      -283.44510505
  -exchange      EXHF   =         0.00000000
  -V(xc)+E(xc)   XCENC  =        24.63455284
  PAW double counting   =       453.49951912     -454.28016443
  entropy T*S    EENTRO =        -0.00000000
  eigenvalues    EBANDS =       -89.10477160
  atomic energy  EATOM  =       197.04175453
  Solvation  Ediel_sol  =         0.00000000
  ---------------------------------------------------
  free energy    TOTEN  =       -23.99999694 eV

  energy without entropy =      -23.99999694  energy(sigma->0) =      -23.99999694


--------------------------------------------------------------------------------------------------------




--------------------------------------- Iteration      1(  15)  ---------------------------------------


    POTLOK:  cpu time    0.1197: real time    0.1197
    SETDIJ:  cpu time    0.0015: real time    0.0015
    EDDIAG:  cpu time    0.0341: real time    0.0341
  RMM-DIIS:  cpu time    0.1457: real time    0.1458
    ORTHCH:  cpu time    0.0015: real time    0.0015
       DOS:  cpu time    0.0002: real time    0.0002
    CHARGE:  cpu time    0.0171: real time    0.0171
    MIXING:  cpu time    0.0052: real time    0.0052
    --------------------------------------------
      LOOP:  cpu time    0.3250: real time    0.3251

 eigenvalue-minimisations  :    64
 total energy-change (2. order) :-0.1941432E-03  (-0.4151915E-05)
 number of electron       8.0000000 magnetization 
 augmentation part        0.1825400 magnetization 

 Broyden mixing:
  rms(total) = 0.22987E-02    rms(broyden)= 0.22985E-02
  rms(prec ) = 0.30220E-02
  weight for this iteration     100.00

 eigenvalues of (default mixing * dielectric matrix)
  average eigenvalue GAMMA=   2.5361
  7.5446  4.8167  2.8654  2.6415  2.1437  1.2499  1.2499  0.9965  0.9466  0.9061

 Free energy of the ion-electron system (eV)
  ---------------------------------------------------
  alpha Z        PSCENC =         0.23675151
  Ewald energy   TEWEN  =       127.41746615
  -Hartree energ DENC   =      -283.44756921
  -exchange      EXHF   =         0.00000000
  -V(xc)+E(xc)   XCENC  =        24.63538123
  PAW double counting   =       453.69485374     -454.47507442
  entropy T*S    EENTRO =        -0.00000000
  eigenvalues    EBANDS =       -89.10375462
  atomic energy  EATOM  =       197.04175453
  Solvation  Ediel_sol  =         0.00000000
  ---------------------------------------------------
  free energy    TOTEN  =       -24.00019109 eV

  energy without entropy =      -24.00019109  energy(sigma->0) =      -24.00019109


--------------------------------------------------------------------------------------------------------




--------------------------------------- Iteration      1(  16)  ---------------------------------------


    POTLOK:  cpu time    0.1212: real time    0.1212
    SETDIJ:  cpu time    0.0015: real time    0.0015
    EDDIAG:  cpu time    0.0333: real time    0.0333
  RMM-DIIS:  cpu time    0.1422: real time    0.1422
    ORTHCH:  cpu time    0.0014: real time    0.0014
       DOS:  cpu time    0.0002: real time    0.0002
    CHARGE:  cpu time    0.0171: real time    0.0171
    MIXING:  cpu time    0.0054: real time    0.0054
    --------------------------------------------
      LOOP:  cpu time    0.3223: real time    0.3223

 eigenvalue-minimisations  :    64
 total energy-change (2. order) :-0.2429319E-03  (-0.2166321E-04)
 number of electron       8.0000000 magnetization 
 augmentation part        0.1826216 magnetization 

 Broyden mixing:
  rms(total) = 0.12512E-02    rms(broyden)= 0.12506E-02
  rms(prec ) = 0.16647E-02
  weight for this iteration     100.00

 eigenvalues of (default mixing * dielectric matrix)
  average eigenvalue GAMMA=   2.4644
  7.7526  4.7911  3.4288  2.4494  2.2634  1.2522  1.2522  1.0155  1.0155  0.9209
  0.9669

 Free energy of the ion-electron system (eV)
  ---------------------------------------------------
  alpha Z        PSCENC =         0.23675151
  Ewald energy   TEWEN  =       127.41746615
  -Hartree energ DENC   =      -283.38983507
  -exchange      EXHF   =         0.00000000
  -V(xc)+E(xc)   XCENC  =        24.63363088
  PAW double counting   =       453.75816071     -454.53747972
  entropy T*S    EENTRO =        -0.00000000
  eigenvalues    EBANDS =       -89.16088300
  atomic energy  EATOM  =       197.04175453
  Solvation  Ediel_sol  =         0.00000000
  ---------------------------------------------------
  free energy    TOTEN  =       -24.00043402 eV

  energy without entropy =      -24.00043402  energy(sigma->0) =      -24.00043402


--------------------------------------------------------------------------------------------------------




--------------------------------------- Iteration      1(  17)  ---------------------------------------


    POTLOK:  cpu time    0.1223: real time    0.1223
    SETDIJ:  cpu time    0.0015: real time    0.0015
    EDDIAG:  cpu time    0.0345: real time    0.0345
  RMM-DIIS:  cpu time    0.1454: real time    0.1454
    ORTHCH:  cpu time    0.0015: real time    0.0015
       DOS:  cpu time    0.0002: real time    0.0002
    CHARGE:  cpu time    0.0171: real time    0.0171
    MIXING:  cpu time    0.0056: real time    0.0056
    --------------------------------------------
      LOOP:  cpu time    0.3280: real time    0.3280

 eigenvalue-minimisations  :    64
 total energy-change (2. order) :-0.2209940E-04  (-0.2695125E-05)
 number of electron       8.0000000 magnetization 
 augmentation part        0.1825915 magnetization 

 Broyden mixing:
  rms(total) = 0.17163E-03    rms(broyden)= 0.17160E-03
  rms(prec ) = 0.24684E-03
  weight for this iteration     100.00

 eigenvalues of (default mixing * dielectric matrix)
  average eigenvalue GAMMA=   2.5673
  8.3948  5.2429  3.7828  2.5938  2.4458  1.8027  1.3132  1.3132  1.0206  1.0206
  0.9834  0.8933

 Free energy of the ion-electron system (eV)
  ---------------------------------------------------
  alpha Z        PSCENC =         0.23675151
  Ewald energy   TEWEN  =       127.41746615
  -Hartree energ DENC   =      -283.43572647
  -exchange      EXHF   =         0.00000000
  -V(xc)+E(xc)   XCENC  =        24.63571213
  PAW double counting   =       453.75430609     -454.53402854
  entropy T*S    EENTRO =        -0.00000000
  eigenvalues    EBANDS =       -89.11669151
  atomic energy  EATOM  =       197.04175453
  Solvation  Ediel_sol  =         0.00000000
  ---------------------------------------------------
  free energy    TOTEN  =       -24.00045612 eV

  energy without entropy =      -24.00045612  energy(sigma->0) =      -24.00045612


--------------------------------------------------------------------------------------------------------




--------------------------------------- Iteration      1(  18)  ---------------------------------------


    POTLOK:  cpu time    0.1244: real time    0.1244
    SETDIJ:  cpu time    0.0015: real time    0.0015
    EDDIAG:  cpu time    0.0333: real time    0.0333
  RMM-DIIS:  cpu time    0.1377: real time    0.1377
    ORTHCH:  cpu time    0.0014: real time    0.0014
       DOS:  cpu time    0.0002: real time    0.0002
    CHARGE:  cpu time    0.0171: real time    0.0171
    MIXING:  cpu time    0.0058: real time    0.0058
    --------------------------------------------
      LOOP:  cpu time    0.3214: real time    0.3215

 eigenvalue-minimisations  :    60
 total energy-change (2. order) :-0.1933594E-04  (-0.3090861E-06)
 number of electron       8.0000000 magnetization 
 augmentation part        0.1825792 magnetization 

 Broyden mixing:
  rms(total) = 0.17648E-03    rms(broyden)= 0.17638E-03
  rms(prec ) = 0.25239E-03
  weight for this iteration     100.00

 eigenvalues of (default mixing * dielectric matrix)
  average eigenvalue GAMMA=   2.5244
  8.4899  5.3632  3.7960  2.7841  2.4457  2.1338  1.2927  1.2927  0.9039  0.9822
  0.9822  1.1755  1.1755

 Free energy of the ion-electron system (eV)
  ---------------------------------------------------
  alpha Z        PSCENC =         0.23675151
  Ewald energy   TEWEN  =       127.41746615
  -Hartree energ DENC   =      -283.43192198
  -exchange      EXHF   =         0.00000000
  -V(xc)+E(xc)   XCENC  =        24.63528141
  PAW double counting   =       453.67880008     -454.45855039
  entropy T*S    EENTRO =        -0.00000000
  eigenvalues    EBANDS =       -89.12005676
  atomic energy  EATOM  =       197.04175453
  Solvation  Ediel_sol  =         0.00000000
  ---------------------------------------------------
  free energy    TOTEN  =       -24.00047545 eV

  energy without entropy =      -24.00047545  energy(sigma->0) =      -24.00047545


--------------------------------------------------------------------------------------------------------




--------------------------------------- Iteration      1(  19)  ---------------------------------------


    POTLOK:  cpu time    0.1253: real time    0.1253
    SETDIJ:  cpu time    0.0014: real time    0.0014
    EDDIAG:  cpu time    0.0337: real time    0.0337
  RMM-DIIS:  cpu time    0.1141: real time    0.1141
    ORTHCH:  cpu time    0.0015: real time    0.0015
       DOS:  cpu time    0.0002: real time    0.0002
    CHARGE:  cpu time    0.0170: real time    0.0170
    MIXING:  cpu time    0.0059: real time    0.0059
    --------------------------------------------
      LOOP:  cpu time    0.2992: real time    0.2992

 eigenvalue-minimisations  :    48
 total energy-change (2. order) :-0.2531200E-05  (-0.4183063E-07)
 number of electron       8.0000000 magnetization 
 augmentation part        0.1825822 magnetization 

 Broyden mixing:
  rms(total) = 0.50935E-04    rms(broyden)= 0.50924E-04
  rms(prec ) = 0.73566E-04
  weight for this iteration     100.00

 eigenvalues of (default mixing * dielectric matrix)
  average eigenvalue GAMMA=   2.5618
  8.5770  5.6334  3.7430  3.7430  2.4190  2.4190  1.7816  1.3173  1.3173  1.0650
  1.0130  1.0130  0.9115  0.9115

 Free energy of the ion-electron system (eV)
  ---------------------------------------------------
  alpha Z        PSCENC =         0.23675151
  Ewald energy   TEWEN  =       127.41746615
  -Hartree energ DENC   =      -283.42548245
  -exchange      EXHF   =         0.00000000
  -V(xc)+E(xc)   XCENC  =        24.63492282
  PAW double counting   =       453.66202541     -454.44171352
  entropy T*S    EENTRO =        -0.00000000
  eigenvalues    EBANDS =       -89.12620242
  atomic energy  EATOM  =       197.04175453
  Solvation  Ediel_sol  =         0.00000000
  ---------------------------------------------------
  free energy    TOTEN  =       -24.00047798 eV

  energy without entropy =      -24.00047798  energy(sigma->0) =      -24.00047798


--------------------------------------------------------------------------------------------------------




--------------------------------------- Iteration      1(  20)  ---------------------------------------


    POTLOK:  cpu time    0.1265: real time    0.1265
    SETDIJ:  cpu time    0.0015: real time    0.0015
    EDDIAG:  cpu time    0.0333: real time    0.0333
  RMM-DIIS:  cpu time    0.1145: real time    0.1145
    ORTHCH:  cpu time    0.0016: real time    0.0016
       DOS:  cpu time    0.0002: real time    0.0002
    CHARGE:  cpu time    0.0172: real time    0.0172
    MIXING:  cpu time    0.0063: real time    0.0063
    --------------------------------------------
      LOOP:  cpu time    0.3011: real time    0.3011

 eigenvalue-minimisations  :    48
 total energy-change (2. order) :-0.2013438E-05  (-0.3686493E-07)
 number of electron       8.0000000 magnetization 
 augmentation part        0.1825860 magnetization 

 Broyden mixing:
  rms(total) = 0.41885E-04    rms(broyden)= 0.41871E-04
  rms(prec ) = 0.65408E-04
  weight for this iteration     100.00

 eigenvalues of (default mixing * dielectric matrix)
  average eigenvalue GAMMA=   2.4610
  8.6026  5.5737  4.0965  3.2584  2.4808  2.3892  1.8168  1.3246  1.3246  1.0860
  1.0860  0.8969  0.9771  0.9771  1.0243

 Free energy of the ion-electron system (eV)
  ---------------------------------------------------
  alpha Z        PSCENC =         0.23675151
  Ewald energy   TEWEN  =       127.41746615
  -Hartree energ DENC   =      -283.42229942
  -exchange      EXHF   =         0.00000000
  -V(xc)+E(xc)   XCENC  =        24.63473722
  PAW double counting   =       453.65918281     -454.43884121
  entropy T*S    EENTRO =        -0.00000000
  eigenvalues    EBANDS =       -89.12923158
  atomic energy  EATOM  =       197.04175453
  Solvation  Ediel_sol  =         0.00000000
  ---------------------------------------------------
  free energy    TOTEN  =       -24.00048000 eV

  energy without entropy =      -24.00048000  energy(sigma->0) =      -24.00048000


--------------------------------------------------------------------------------------------------------




--------------------------------------- Iteration      1(  21)  ---------------------------------------


    POTLOK:  cpu time    0.1264: real time    0.1264
    SETDIJ:  cpu time    0.0015: real time    0.0014
    EDDIAG:  cpu time    0.0335: real time    0.0335
  RMM-DIIS:  cpu time    0.1126: real time    0.1126
    ORTHCH:  cpu time    0.0018: real time    0.0017
       DOS:  cpu time    0.0002: real time    0.0002
    --------------------------------------------
      LOOP:  cpu time    0.2758: real time    0.2758

 eigenvalue-minimisations  :    44
 total energy-change (2. order) :-0.2993975E-06  (-0.5506016E-08)
 number of electron       8.0000000 magnetization 
 augmentation part        0.1825860 magnetization 

 Free energy of the ion-electron system (eV)
  ---------------------------------------------------
  alpha Z        PSCENC =         0.23675151
  Ewald energy   TEWEN  =       127.41746615
  -Hartree energ DENC   =      -283.42470182
  -exchange      EXHF   =         0.00000000
  -V(xc)+E(xc)   XCENC  =        24.63488239
  PAW double counting   =       453.66443126     -454.44410440
  entropy T*S    EENTRO =        -0.00000000
  eigenvalues    EBANDS =       -89.12695992
  atomic energy  EATOM  =       197.04175453
  Solvation  Ediel_sol  =         0.00000000
  ---------------------------------------------------
  free energy    TOTEN  =       -24.00048030 eV

  energy without entropy =      -24.00048030  energy(sigma->0) =      -24.00048030


--------------------------------------------------------------------------------------------------------




 average (electrostatic) potential at core
  the test charge radii are     0.5201  0.6991
  (the norm of the test charge is              1.0000)
       1 -41.5488       2 -41.4395       3 -41.2355       4 -41.5346       5 -58.0271
 
 
 
 E-fermi :  -8.1226     XC(G=0):  -0.6878     alpha+bet : -0.2059


 k-point     1 :       0.2500    0.2500    0.2500
  band No.  band energies     occupation 
      1     -16.8138      2.00000
      2      -9.3854      2.00000
      3      -9.2933      2.00000
      4      -9.0712      2.00000
      5      -0.3277      0.00000
      6       0.5453      0.00000
      7       0.6480      0.00000
      8       0.6750      0.00000

 k-point     2 :      -0.2500    0.2500    0.2500
  band No.  band energies     occupation 
      1     -16.8137      2.00000
      2      -9.3854      2.00000
      3      -9.2932      2.00000
      4      -9.0711      2.00000
      5      -0.3299      0.00000
      6       0.5393      0.00000
      7       0.6508      0.00000
      8       0.6892      0.00000

 k-point     3 :       0.2500   -0.2500    0.2500
  band No.  band energies     occupation 
      1     -16.8137      2.00000
      2      -9.3854      2.00000
      3      -9.2932      2.00000
      4      -9.0712      2.00000
      5      -0.3300      0.00000
      6       0.5389      0.00000
      7       0.6505      0.00000
      8       0.6921      0.00000

 k-point     4 :      -0.2500   -0.2500    0.2500
  band No.  band energies     occupation 
      1     -16.8137      2.00000
      2      -9.3853      2.00000
      3      -9.2931      2.00000
      4      -9.0712      2.00000
      5      -0.3377      0.00000
      6       0.5589      0.00000
      7       0.6700      0.00000
      8       0.7119      0.00000


--------------------------------------------------------------------------------------------------------


 soft charge-density along one line, spin component           1
         0         1         2         3         4         5         6         7         8         9
 total charge-density along one line
 
 pseudopotential strength for first ion, spin component:           1
 -2.341  -4.035  -0.001  -0.001   0.001
 -4.035  -6.867  -0.003  -0.004   0.002
 -0.001  -0.003  -0.337   0.002  -0.001
 -0.001  -0.004   0.002  -0.335  -0.001
  0.001   0.002  -0.001  -0.001  -0.338
 total augmentation occupancy for first ion, spin component:           1
  3.569  -0.642   0.232   0.339  -0.152
 -0.642   0.130  -0.043  -0.063   0.028
  0.232  -0.043   0.022   0.018  -0.008
  0.339  -0.063   0.018   0.036  -0.012
 -0.152   0.028  -0.008  -0.012   0.015


------------------------ aborting loop because EDIFF is reached ----------------------------------------


    CHARGE:  cpu time    0.0169: real time    0.0169
    FORLOC:  cpu time    0.0110: real time    0.0110
    FORNL :  cpu time    0.0176: real time    0.0176
    STRESS:  cpu time    0.1398: real time    0.1403
    FORCOR:  cpu time    0.1278: real time    0.1278
    FORHAR:  cpu time    0.0391: real time    0.0391
    MIXING:  cpu time    0.0063: real time    0.0063
    OFIELD:  cpu time    0.0000: real time    0.0000

  FORCE on cell =-STRESS in cart. coord.  units (eV):
  Direction    XX          YY          ZZ          XY          YZ          ZX
  --------------------------------------------------------------------------------------
  Alpha Z     0.23675     0.23675     0.23675
  Ewald      41.78006    40.42113    45.21622    -0.90275    -2.36288    -2.73769
  Hartree    93.45266    93.53823    96.43537     0.32966    -1.02115    -1.04740
  E(xc)     -27.09021   -27.09352   -27.10213     0.00083    -0.01147    -0.01203
  Local    -194.07327  -193.26588  -200.14186     0.09799     3.09392     3.36451
  n-local   -15.63555   -15.60798   -15.72561     0.05332    -0.01798     0.00571
  augment     0.12081     0.12447     0.11651     0.00437     0.00169     0.00301
  Kinetic   100.18427   100.37574   100.81126    -0.05306     0.57266     0.55997
  Fock        0.00000     0.00000     0.00000     0.00000     0.00000     0.00000
  -------------------------------------------------------------------------------------
  Total      -1.02448    -1.27106    -0.15348    -0.46964     0.25478     0.13608
  in kB      -1.60414    -1.99023    -0.24033    -0.73537     0.39893     0.21307
  external pressure =       -1.28 kB  Pullay stress =        0.00 kB

  kinetic pressure (ideal gas correction) =      0.00 kB
  total pressure  =     -1.28 kB
  Total+kin.    -1.604      -1.990      -0.240      -0.735       0.399       0.213

 VOLUME and BASIS-vectors are now :
 -----------------------------------------------------------------------------
  energy-cutoff  :      400.00
  volume of cell :     1023.23
      direct lattice vectors                 reciprocal lattice vectors
    10.186896050  0.000000000  0.000000000     0.098165329 -0.001848607  0.002650140
     0.191442664 10.166052201  0.000000000     0.000000000  0.098366601  0.002767726
    -0.271975720 -0.278005679  9.880484454     0.000000000  0.000000000  0.101209612

  length of vectors
    10.186896050 10.167854624  9.888135870     0.098218493  0.098405531  0.101209612


 FORCES acting on ions
    electron-ion (+dipol)            ewald-force                    non-local-force                 convergence-correction
 -----------------------------------------------------------------------------------------------
   -.182E+02 0.282E+02 0.409E+02   0.201E+02 -.313E+02 -.454E+02   -.196E+01 0.295E+01 0.432E+01   0.545E-04 -.733E-04 -.103E-03
   0.516E+02 -.697E+01 0.353E+01   -.566E+02 0.764E+01 -.394E+01   0.530E+01 -.721E+00 0.347E+00   -.146E-03 0.233E-04 -.177E-04
   -.233E+02 -.454E+02 0.133E+01   0.250E+02 0.489E+02 -.129E+01   -.227E+01 -.442E+01 0.175E+00   0.673E-04 0.121E-03 -.763E-05
   -.108E+02 0.256E+02 -.448E+02   0.120E+02 -.282E+02 0.496E+02   -.112E+01 0.271E+01 -.470E+01   0.406E-04 -.716E-04 0.110E-03
   0.552E+00 -.244E+01 -.971E+00   -.564E+00 0.299E+01 0.104E+01   0.180E+00 0.531E+00 -.110E+00   0.540E-04 0.296E-04 -.588E-04
 -----------------------------------------------------------------------------------------------
   -.118E+00 -.105E+01 -.313E-01   0.533E-14 0.000E+00 -.711E-14   0.118E+00 0.105E+01 0.314E-01   0.705E-04 0.291E-04 -.767E-04
 
 
 POSITION                                       TOTAL-FORCE (eV/Angst)
 -----------------------------------------------------------------------------------
      5.46717      4.03909      3.55988        -0.077491     -0.171877     -0.176957
      3.99568      4.76650      4.32813         0.342078     -0.052285     -0.070158
      5.60818      5.62818      4.37255        -0.520339     -0.941056      0.207926
      5.31572      4.08788      5.33450         0.086985      0.084290      0.084531
      5.09038      4.61887      4.40392         0.168544      1.080715     -0.045319
 -----------------------------------------------------------------------------------
    total drift:                               -0.000223     -0.000213      0.000022


--------------------------------------------------------------------------------------------------------



  FREE ENERGIE OF THE ION-ELECTRON SYSTEM (eV)
  ---------------------------------------------------
  free  energy   TOTEN  =       -24.00048030 eV

  energy  without entropy=      -24.00048030  energy(sigma->0) =      -24.00048030
 


--------------------------------------------------------------------------------------------------------


    POTLOK:  cpu time    0.1296: real time    0.1296


--------------------------------------------------------------------------------------------------------


 stress matrix after NEB project (eV)
     -1.02448     -0.46964      0.13608
     -0.46964     -1.27106      0.25478
      0.13608      0.25478     -0.15348
  FORCES: max atom, RMS     1.095250    0.722680
  FORCE total and by dimension    1.615961    1.080715
  Stress total and by dimension    1.815680    1.271060
           RANDOM_SEED =         581340280                0                0
           RANDOM_SEED =         581340280               30                0
   IONSTEP:  cpu time    0.0028: real time    0.0061

  ENERGY OF THE ELECTRON-ION-THERMOSTAT SYSTEM (eV)
  ---------------------------------------------------
% ion-electron   TOTEN  =       -24.000480  see above
  kinetic energy EKIN   =         0.000453
  kin. lattice  EKIN_LAT=         0.000000  (temperature    0.88 K)
  nose potential ES     =         0.000000
  nose kinetic   EPS    =         0.000000
  ---------------------------------------------------
  total energy   ETOTAL =       -24.000027 eV

  maximum distance moved by ions :      0.26E-03

    WAVPRE:  cpu time    0.0374: real time    0.0374
    FEWALD:  cpu time    0.0003: real time    0.0003
    ORTHCH:  cpu time    0.0080: real time    0.0080
     LOOP+:  cpu time    6.7921: real time    6.8403


--------------------------------------- Iteration      2(   1)  ---------------------------------------


    POTLOK:  cpu time    0.1293: real time    0.1293
    SETDIJ:  cpu time    0.0015: real time    0.0015
     EDDAV:  cpu time    0.1404: real time    0.1404
       DOS:  cpu time    0.0002: real time    0.0002
    CHARGE:  cpu time    0.0167: real time    0.0167
    MIXING:  cpu time    0.0053: real time    0.0053
    --------------------------------------------
      LOOP:  cpu time    0.2935: real time    0.2935

 eigenvalue-minimisations  :    64
 total energy-change (2. order) :-0.3531876E-02  (-0.3737505E-03)
 number of electron       8.0000000 magnetization 
 augmentation part        0.1828142 magnetization 

 Broyden mixing:
  rms(total) = 0.27411E-02    rms(broyden)= 0.27395E-02
  rms(prec ) = 0.33054E-02
  weight for this iteration     100.00

 Free energy of the ion-electron system (eV)
  ---------------------------------------------------
  alpha Z        PSCENC =         0.23675151
  Ewald energy   TEWEN  =       127.57191525
  -Hartree energ DENC   =      -283.52064654
  -exchange      EXHF   =         0.00000000
  -V(xc)+E(xc)   XCENC  =        24.63967178
  PAW double counting   =       453.67169722     -454.45138789
  entropy T*S    EENTRO =        -0.00000000
  eigenvalues    EBANDS =       -89.19376774
  atomic energy  EATOM  =       197.04175453
  Solvation  Ediel_sol  =         0.00000000
  ---------------------------------------------------
  free energy    TOTEN  =       -24.00401187 eV

  energy without entropy =      -24.00401187  energy(sigma->0) =      -24.00401187


--------------------------------------------------------------------------------------------------------




--------------------------------------- Iteration      2(   2)  ---------------------------------------


    POTLOK:  cpu time    0.1340: real time    0.1340
    SETDIJ:  cpu time    0.0015: real time    0.0015
    EDDIAG:  cpu time    0.0338: real time    0.0338
  RMM-DIIS:  cpu time    0.1458: real time    0.1458
    ORTHCH:  cpu time    0.0014: real time    0.0014
       DOS:  cpu time    0.0002: real time    0.0002
    CHARGE:  cpu time    0.0171: real time    0.0171
    MIXING:  cpu time    0.0041: real time    0.0041
    --------------------------------------------
      LOOP:  cpu time    0.3377: real time    0.3378

 eigenvalue-minimisations  :    64
 total energy-change (2. order) : 0.6244509E-05  (-0.9188138E-05)
 number of electron       8.0000000 magnetization 
 augmentation part        0.1827935 magnetization 

 Broyden mixing:
  rms(total) = 0.15597E-02    rms(broyden)= 0.15592E-02
  rms(prec ) = 0.18517E-02
  weight for this iteration     100.00

 eigenvalues of (default mixing * dielectric matrix)
  average eigenvalue GAMMA=   1.7283
  1.7283

 Free energy of the ion-electron system (eV)
  ---------------------------------------------------
  alpha Z        PSCENC =         0.23675151
  Ewald energy   TEWEN  =       127.57191525
  -Hartree energ DENC   =      -283.54957265
  -exchange      EXHF   =         0.00000000
  -V(xc)+E(xc)   XCENC  =        24.64125227
  PAW double counting   =       454.20482517     -454.98482785
  entropy T*S    EENTRO =        -0.00000000
  eigenvalues    EBANDS =       -89.16610385
  atomic energy  EATOM  =       197.04175453
  Solvation  Ediel_sol  =         0.00000000
  ---------------------------------------------------
  free energy    TOTEN  =       -24.00400563 eV

  energy without entropy =      -24.00400563  energy(sigma->0) =      -24.00400563


--------------------------------------------------------------------------------------------------------




--------------------------------------- Iteration      2(   3)  ---------------------------------------


    POTLOK:  cpu time    0.1329: real time    0.1329
    SETDIJ:  cpu time    0.0014: real time    0.0014
    EDDIAG:  cpu time    0.0338: real time    0.0338
  RMM-DIIS:  cpu time    0.1441: real time    0.1441
    ORTHCH:  cpu time    0.0014: real time    0.0014
       DOS:  cpu time    0.0002: real time    0.0002
    CHARGE:  cpu time    0.0171: real time    0.0171
    MIXING:  cpu time    0.0043: real time    0.0043
    --------------------------------------------
      LOOP:  cpu time    0.3351: real time    0.3351

 eigenvalue-minimisations  :    64
 total energy-change (2. order) : 0.1729002E-05  (-0.2476454E-05)
 number of electron       8.0000000 magnetization 
 augmentation part        0.1827594 magnetization 

 Broyden mixing:
  rms(total) = 0.47109E-03    rms(broyden)= 0.47073E-03
  rms(prec ) = 0.57530E-03
  weight for this iteration     100.00

 eigenvalues of (default mixing * dielectric matrix)
  average eigenvalue GAMMA=   1.5077
  1.0690  1.9463

 Free energy of the ion-electron system (eV)
  ---------------------------------------------------
  alpha Z        PSCENC =         0.23675151
  Ewald energy   TEWEN  =       127.57191525
  -Hartree energ DENC   =      -283.57077539
  -exchange      EXHF   =         0.00000000
  -V(xc)+E(xc)   XCENC  =        24.64240082
  PAW double counting   =       454.51727343     -455.29753583
  entropy T*S    EENTRO =        -0.00000000
  eigenvalues    EBANDS =       -89.14578822
  atomic energy  EATOM  =       197.04175453
  Solvation  Ediel_sol  =         0.00000000
  ---------------------------------------------------
  free energy    TOTEN  =       -24.00400390 eV

  energy without entropy =      -24.00400390  energy(sigma->0) =      -24.00400390


--------------------------------------------------------------------------------------------------------




--------------------------------------- Iteration      2(   4)  ---------------------------------------


    POTLOK:  cpu time    0.1327: real time    0.1327
    SETDIJ:  cpu time    0.0014: real time    0.0014
    EDDIAG:  cpu time    0.0333: real time    0.0333
  RMM-DIIS:  cpu time    0.1148: real time    0.1148
    ORTHCH:  cpu time    0.0014: real time    0.0014
       DOS:  cpu time    0.0002: real time    0.0002
    --------------------------------------------
      LOOP:  cpu time    0.2838: real time    0.2838

 eigenvalue-minimisations  :    48
 total energy-change (2. order) : 0.2925502E-06  (-0.5652306E-07)
 number of electron       8.0000000 magnetization 
 augmentation part        0.1827594 magnetization 

 Free energy of the ion-electron system (eV)
  ---------------------------------------------------
  alpha Z        PSCENC =         0.23675151
  Ewald energy   TEWEN  =       127.57191525
  -Hartree energ DENC   =      -283.56610883
  -exchange      EXHF   =         0.00000000
  -V(xc)+E(xc)   XCENC  =        24.64221244
  PAW double counting   =       454.52484210     -455.30504264
  entropy T*S    EENTRO =        -0.00000000
  eigenvalues    EBANDS =       -89.15032797
  atomic energy  EATOM  =       197.04175453
  Solvation  Ediel_sol  =         0.00000000
  ---------------------------------------------------
  free energy    TOTEN  =       -24.00400361 eV

  energy without entropy =      -24.00400361  energy(sigma->0) =      -24.00400361


--------------------------------------------------------------------------------------------------------




 average (electrostatic) potential at core
  the test charge radii are     0.5201  0.6991
  (the norm of the test charge is              1.0000)
       1 -41.5435       2 -41.4443       3 -41.2525       4 -41.5317       5 -58.0217
 
 
 
 E-fermi :  -8.1295     XC(G=0):  -0.7016     alpha+bet : -0.2059


 k-point     1 :       0.2500    0.2500    0.2500
  band No.  band energies     occupation 
      1     -16.8181      2.00000
      2      -9.3831      2.00000
      3      -9.2941      2.00000
      4      -9.0800      2.00000
      5      -0.3302      0.00000
      6       0.5320      0.00000
      7       0.6413      0.00000
      8       0.6666      0.00000

 k-point     2 :      -0.2500    0.2500    0.2500
  band No.  band energies     occupation 
      1     -16.8181      2.00000
      2      -9.3831      2.00000
      3      -9.2941      2.00000
      4      -9.0799      2.00000
      5      -0.3326      0.00000
      6       0.5286      0.00000
      7       0.6431      0.00000
      8       0.6799      0.00000

 k-point     3 :       0.2500   -0.2500    0.2500
  band No.  band energies     occupation 
      1     -16.8180      2.00000
      2      -9.3831      2.00000
      3      -9.2941      2.00000
      4      -9.0800      2.00000
      5      -0.3327      0.00000
      6       0.5286      0.00000
      7       0.6422      0.00000
      8       0.6830      0.00000

 k-point     4 :      -0.2500   -0.2500    0.2500
  band No.  band energies     occupation 
      1     -16.8180      2.00000
      2      -9.3830      2.00000
      3      -9.2940      2.00000
      4      -9.0800      2.00000
      5      -0.3406      0.00000
      6       0.5483      0.00000
      7       0.6632      0.00000
      8       0.7025      0.00000


--------------------------------------------------------------------------------------------------------


 soft charge-density along one line, spin component           1
         0         1         2         3         4         5         6         7         8         9
 total charge-density along one line
 
 pseudopotential strength for first ion, spin component:           1
 -2.341  -4.035  -0.001  -0.001   0.001
 -4.035  -6.866  -0.003  -0.004   0.002
 -0.001  -0.003  -0.337   0.002  -0.001
 -0.001  -0.004   0.002  -0.335  -0.001
  0.001   0.002  -0.001  -0.001  -0.338
 total augmentation occupancy for first ion, spin component:           1
  3.567  -0.642   0.232   0.338  -0.152
 -0.642   0.130  -0.043  -0.063   0.028
  0.232  -0.043   0.022   0.018  -0.008
  0.338  -0.063   0.018   0.036  -0.012
 -0.152   0.028  -0.008  -0.012   0.015


------------------------ aborting loop because EDIFF is reached ----------------------------------------


    CHARGE:  cpu time    0.0170: real time    0.0170
    FORLOC:  cpu time    0.0110: real time    0.0110
    FORNL :  cpu time    0.0175: real time    0.0175
    STRESS:  cpu time    0.1406: real time    0.1406
    FORCOR:  cpu time    0.1292: real time    0.1293
    FORHAR:  cpu time    0.0419: real time    0.0419
    MIXING:  cpu time    0.0059: real time    0.0059
    OFIELD:  cpu time    0.0000: real time    0.0000

  FORCE on cell =-STRESS in cart. coord.  units (eV):
  Direction    XX          YY          ZZ          XY          YZ          ZX
  --------------------------------------------------------------------------------------
  Alpha Z     0.23675     0.23675     0.23675
  Ewald      41.83626    40.52444    45.21116    -0.83967    -2.33817    -2.68638
  Hartree    93.48861    93.56923    96.50243     0.31883    -1.00867    -1.03650
  E(xc)     -27.09822   -27.10157   -27.10962     0.00064    -0.01122    -0.01180
  Local    -194.15022  -193.36750  -200.23156     0.07513     3.05645     3.31343
  n-local   -15.65274   -15.62749   -15.73613     0.04926    -0.01719     0.00515
  augment     0.12042     0.12394     0.11657     0.00410     0.00173     0.00292
  Kinetic   100.23531   100.42963   100.83567    -0.04276     0.56115     0.55019
  Fock        0.00000     0.00000     0.00000     0.00000     0.00000     0.00000
[...]
      5.57904      5.57677      4.38814         0.409292      0.817896      0.060680
      5.32182      4.09502      5.33899         0.002386      0.052438     -0.049556
      5.09143      4.62374      4.40348        -0.041255     -0.918473     -0.098788
 -----------------------------------------------------------------------------------
    total drift:                                0.000034      0.000205     -0.000144


--------------------------------------------------------------------------------------------------------



  FREE ENERGIE OF THE ION-ELECTRON SYSTEM (eV)
  ---------------------------------------------------
  free  energy   TOTEN  =       -24.01555512 eV

  energy  without entropy=      -24.01555512  energy(sigma->0) =      -24.01555512
 
 d Force =-0.6291368E-02[-0.770E-02,-0.488E-02]  d Energy =-0.6281236E-02-0.101E-04
 d Force =-0.5350898E+00[-0.538E+00,-0.532E+00]  d Ewald  =-0.5350797E+00-0.101E-04


--------------------------------------------------------------------------------------------------------


    POTLOK:  cpu time    0.1342: real time    0.1342


--------------------------------------------------------------------------------------------------------


 stress matrix after NEB project (eV)
      0.03459      0.42181      0.11846
      0.42181      0.33084     -0.00268
      0.11846     -0.00268     -0.54159
  FORCES: max atom, RMS     0.924691    0.600006
  FORCE total and by dimension    1.341655    0.918473
  Stress total and by dimension    0.887632    0.541589
           RANDOM_SEED =         581340280               30                0
   IONSTEP:  cpu time    0.0001: real time    0.0001

  ENERGY OF THE ELECTRON-ION-THERMOSTAT SYSTEM (eV)
  ---------------------------------------------------
% ion-electron   TOTEN  =       -24.015555  see above
  kinetic energy EKIN   =         0.015288
  kin. lattice  EKIN_LAT=         0.000000  (temperature   29.57 K)
  nose potential ES     =         0.000000
  nose kinetic   EPS    =         0.000000
  ---------------------------------------------------
  total energy   ETOTAL =       -24.000267 eV

  maximum distance moved by ions :      0.60E-03

    WAVPRE:  cpu time    0.0430: real time    0.0430
    FEWALD:  cpu time    0.0003: real time    0.0003
    ORTHCH:  cpu time    0.0082: real time    0.0082
 Prediction of Wavefunctions ALPHA= 2.224 BETA=-1.265
     LOOP+:  cpu time    2.0860: real time    2.0861


--------------------------------------- Iteration     10(   1)  ---------------------------------------


    POTLOK:  cpu time    0.1333: real time    0.1333
    SETDIJ:  cpu time    0.0014: real time    0.0014
     EDDAV:  cpu time    0.1881: real time    0.1881
       DOS:  cpu time    0.0002: real time    0.0002
    CHARGE:  cpu time    0.0168: real time    0.0168
    MIXING:  cpu time    0.0040: real time    0.0040
    --------------------------------------------
      LOOP:  cpu time    0.3438: real time    0.3439

 eigenvalue-minimisations  :    96
 total energy-change (2. order) : 0.6032845E-02  (-0.4918116E-04)
 number of electron       8.0000000 magnetization 
 augmentation part        0.1875939 magnetization 

 Broyden mixing:
  rms(total) = 0.35003E-03    rms(broyden)= 0.34915E-03
  rms(prec ) = 0.37396E-03
  weight for this iteration     100.00

 Free energy of the ion-electron system (eV)
  ---------------------------------------------------
  alpha Z        PSCENC =         0.23675151
  Ewald energy   TEWEN  =       131.64720917
  -Hartree energ DENC   =      -287.15443402
  -exchange      EXHF   =         0.00000000
  -V(xc)+E(xc)   XCENC  =        24.83205371
  PAW double counting   =       479.17640317     -479.97097775
  entropy T*S    EENTRO =        -0.00000000
  eigenvalues    EBANDS =       -89.81828192
  atomic energy  EATOM  =       197.04175453
  Solvation  Ediel_sol  =         0.00000000
  ---------------------------------------------------
  free energy    TOTEN  =       -24.00952161 eV

  energy without entropy =      -24.00952161  energy(sigma->0) =      -24.00952161


--------------------------------------------------------------------------------------------------------




--------------------------------------- Iteration     10(   2)  ---------------------------------------


    POTLOK:  cpu time    0.1325: real time    0.1325
    SETDIJ:  cpu time    0.0015: real time    0.0014
    EDDIAG:  cpu time    0.0334: real time    0.0334
  RMM-DIIS:  cpu time    0.1455: real time    0.1455
    ORTHCH:  cpu time    0.0016: real time    0.0016
       DOS:  cpu time    0.0002: real time    0.0002
    CHARGE:  cpu time    0.0171: real time    0.0171
    MIXING:  cpu time    0.0041: real time    0.0041
    --------------------------------------------
      LOOP:  cpu time    0.3359: real time    0.3359

 eigenvalue-minimisations  :    64
 total energy-change (2. order) :-0.1771750E-05  (-0.1612945E-05)
 number of electron       8.0000000 magnetization 
 augmentation part        0.1876033 magnetization 

 Broyden mixing:
  rms(total) = 0.22572E-03    rms(broyden)= 0.22521E-03
  rms(prec ) = 0.24109E-03
  weight for this iteration     100.00

 eigenvalues of (default mixing * dielectric matrix)
  average eigenvalue GAMMA=   0.6524
  0.6524

 Free energy of the ion-electron system (eV)
  ---------------------------------------------------
  alpha Z        PSCENC =         0.23675151
  Ewald energy   TEWEN  =       131.64720917
  -Hartree energ DENC   =      -287.15231815
  -exchange      EXHF   =         0.00000000
  -V(xc)+E(xc)   XCENC  =        24.83193091
  PAW double counting   =       479.20826291     -480.00277639
  entropy T*S    EENTRO =        -0.00000000
  eigenvalues    EBANDS =       -89.82033787
  atomic energy  EATOM  =       197.04175453
  Solvation  Ediel_sol  =         0.00000000
  ---------------------------------------------------
  free energy    TOTEN  =       -24.00952338 eV

  energy without entropy =      -24.00952338  energy(sigma->0) =      -24.00952338


--------------------------------------------------------------------------------------------------------




--------------------------------------- Iteration     10(   3)  ---------------------------------------


    POTLOK:  cpu time    0.1317: real time    0.1317
    SETDIJ:  cpu time    0.0014: real time    0.0014
    EDDIAG:  cpu time    0.0338: real time    0.0338
  RMM-DIIS:  cpu time    0.1149: real time    0.1149
    ORTHCH:  cpu time    0.0017: real time    0.0017
       DOS:  cpu time    0.0002: real time    0.0002
    CHARGE:  cpu time    0.0169: real time    0.0169
    MIXING:  cpu time    0.0041: real time    0.0041
    --------------------------------------------
      LOOP:  cpu time    0.3045: real time    0.3045

 eigenvalue-minimisations  :    48
 total energy-change (2. order) :-0.1904870E-06  (-0.2331496E-07)
 number of electron       8.0000000 magnetization 
 augmentation part        0.1876042 magnetization 

 Broyden mixing:
  rms(total) = 0.18023E-03    rms(broyden)= 0.18019E-03
  rms(prec ) = 0.19102E-03
  weight for this iteration     100.00

 eigenvalues of (default mixing * dielectric matrix)
  average eigenvalue GAMMA=   1.5170
  1.2094  1.8247

 Free energy of the ion-electron system (eV)
  ---------------------------------------------------
  alpha Z        PSCENC =         0.23675151
  Ewald energy   TEWEN  =       131.64720917
  -Hartree energ DENC   =      -287.15194321
  -exchange      EXHF   =         0.00000000
  -V(xc)+E(xc)   XCENC  =        24.83191695
  PAW double counting   =       479.17617650     -479.97068354
  entropy T*S    EENTRO =        -0.00000000
  eigenvalues    EBANDS =       -89.82070548
  atomic energy  EATOM  =       197.04175453
  Solvation  Ediel_sol  =         0.00000000
  ---------------------------------------------------
  free energy    TOTEN  =       -24.00952357 eV

  energy without entropy =      -24.00952357  energy(sigma->0) =      -24.00952357


--------------------------------------------------------------------------------------------------------




--------------------------------------- Iteration     10(   4)  ---------------------------------------


    POTLOK:  cpu time    0.1313: real time    0.1313
    SETDIJ:  cpu time    0.0015: real time    0.0015
    EDDIAG:  cpu time    0.0333: real time    0.0333
  RMM-DIIS:  cpu time    0.1146: real time    0.1146
    ORTHCH:  cpu time    0.0014: real time    0.0014
       DOS:  cpu time    0.0002: real time    0.0002
    --------------------------------------------
      LOOP:  cpu time    0.2822: real time    0.2822

 eigenvalue-minimisations  :    48
 total energy-change (2. order) :-0.6693290E-06  (-0.9816618E-08)
 number of electron       8.0000000 magnetization 
 augmentation part        0.1876042 magnetization 

 Free energy of the ion-electron system (eV)
  ---------------------------------------------------
  alpha Z        PSCENC =         0.23675151
  Ewald energy   TEWEN  =       131.64720917
  -Hartree energ DENC   =      -287.15168126
  -exchange      EXHF   =         0.00000000
  -V(xc)+E(xc)   XCENC  =        24.83191417
  PAW double counting   =       479.08737733     -479.88187843
  entropy T*S    EENTRO =        -0.00000000
  eigenvalues    EBANDS =       -89.82097126
  atomic energy  EATOM  =       197.04175453
  Solvation  Ediel_sol  =         0.00000000
  ---------------------------------------------------
  free energy    TOTEN  =       -24.00952424 eV

  energy without entropy =      -24.00952424  energy(sigma->0) =      -24.00952424


--------------------------------------------------------------------------------------------------------




 average (electrostatic) potential at core
  the test charge radii are     0.5201  0.6991
  (the norm of the test charge is              1.0000)
       1 -41.4256       2 -41.5593       3 -41.7517       4 -41.4664       5 -57.9158
 
 
 
 E-fermi :  -8.2624     XC(G=0):  -0.6893     alpha+bet : -0.2059


 k-point     1 :       0.2500    0.2500    0.2500
  band No.  band energies     occupation 
      1     -16.9495      2.00000
      2      -9.4082      2.00000
      3      -9.3118      2.00000
      4      -9.2412      2.00000
      5      -0.3025      0.00000
      6       0.5445      0.00000
      7       0.6543      0.00000
      8       0.6839      0.00000

 k-point     2 :      -0.2500    0.2500    0.2500
  band No.  band energies     occupation 
      1     -16.9494      2.00000
      2      -9.4082      2.00000
      3      -9.3118      2.00000
      4      -9.2412      2.00000
      5      -0.3040      0.00000
      6       0.5335      0.00000
      7       0.6651      0.00000
      8       0.6914      0.00000

 k-point     3 :       0.2500   -0.2500    0.2500
  band No.  band energies     occupation 
      1     -16.9494      2.00000
      2      -9.4082      2.00000
      3      -9.3118      2.00000
      4      -9.2411      2.00000
      5      -0.3044      0.00000
      6       0.5356      0.00000
      7       0.6640      0.00000
      8       0.6941      0.00000

 k-point     4 :      -0.2500   -0.2500    0.2500
  band No.  band energies     occupation 
      1     -16.9494      2.00000
      2      -9.4081      2.00000
      3      -9.3117      2.00000
      4      -9.2411      2.00000
      5      -0.3137      0.00000
      6       0.5688      0.00000
      7       0.6756      0.00000
      8       0.7133      0.00000


--------------------------------------------------------------------------------------------------------


 soft charge-density along one line, spin component           1
         0         1         2         3         4         5         6         7         8         9
 total charge-density along one line
 
 pseudopotential strength for first ion, spin component:           1
 -2.340  -4.032  -0.001  -0.001   0.001
 -4.032  -6.862  -0.003  -0.004   0.002
 -0.001  -0.003  -0.338   0.002  -0.001
 -0.001  -0.004   0.002  -0.336  -0.001
  0.001   0.002  -0.001  -0.001  -0.339
 total augmentation occupancy for first ion, spin component:           1
  3.519  -0.634   0.228   0.326  -0.140
 -0.634   0.128  -0.042  -0.060   0.026
  0.228  -0.042   0.021   0.018  -0.008
  0.326  -0.060   0.018   0.034  -0.011
 -0.140   0.026  -0.008  -0.011   0.013


------------------------ aborting loop because EDIFF is reached ----------------------------------------


    CHARGE:  cpu time    0.0169: real time    0.0169
    FORLOC:  cpu time    0.0110: real time    0.0110
    FORNL :  cpu time    0.0176: real time    0.0176
    STRESS:  cpu time    0.1403: real time    0.1403
    FORCOR:  cpu time    0.1296: real time    0.1296
    FORHAR:  cpu time    0.0415: real time    0.0415
    MIXING:  cpu time    0.0048: real time    0.0048
    OFIELD:  cpu time    0.0000: real time    0.0000

  FORCE on cell =-STRESS in cart. coord.  units (eV):
  Direction    XX          YY          ZZ          XY          YZ          ZX
  --------------------------------------------------------------------------------------
  Alpha Z     0.23675     0.23675     0.23675
  Ewald      43.03286    43.24091    45.37340     0.83971    -1.13113    -0.77931
  Hartree    94.44034    94.43401    98.27832     0.08262    -0.56666    -0.58374
  E(xc)     -27.30771   -27.31193   -27.30530    -0.00379    -0.00242    -0.00278
  Local    -195.95214  -195.97832  -202.79605    -0.55438     1.53210     1.34277
  n-local   -16.11484   -16.15124   -16.03998    -0.05164     0.00491    -0.00629
  augment     0.11015     0.10757     0.11737    -0.00438     0.00140    -0.00006
  Kinetic   101.69963   101.92396   101.56876     0.19952     0.12689     0.13144
  Fock        0.00000     0.00000     0.00000     0.00000     0.00000     0.00000
  -------------------------------------------------------------------------------------
  Total       0.14503     0.50172    -0.56672     0.50767    -0.03491     0.10202
  in kB       0.22709     0.78559    -0.88738     0.79492    -0.05466     0.15975
  external pressure =        0.04 kB  Pullay stress =        0.00 kB

  kinetic pressure (ideal gas correction) =      0.01 kB
  total pressure  =      0.05 kB
  Total+kin.     0.239       0.804      -0.879       0.807      -0.063       0.153

 VOLUME and BASIS-vectors are now :
 -----------------------------------------------------------------------------
  energy-cutoff  :      400.00
  volume of cell :     1023.23
      direct lattice vectors                 reciprocal lattice vectors
    10.186896050  0.000000000  0.000000000     0.098165329 -0.001848607  0.002650140
     0.191442664 10.166052201  0.000000000     0.000000000  0.098366601  0.002767726
    -0.271975720 -0.278005679  9.880484454     0.000000000  0.000000000  0.101209612

  length of vectors
    10.186896050 10.167854624  9.888135870     0.098218493  0.098405531  0.101209612


 FORCES acting on ions
    electron-ion (+dipol)            ewald-force                    non-local-force                 convergence-correction
 -----------------------------------------------------------------------------------------------
   -.174E+02 0.286E+02 0.407E+02   0.191E+02 -.314E+02 -.447E+02   -.179E+01 0.291E+01 0.416E+01   0.155E-04 0.275E-06 -.518E-04
   0.528E+02 -.679E+01 0.403E+01   -.587E+02 0.752E+01 -.449E+01   0.557E+01 -.718E+00 0.424E+00   -.608E-04 0.456E-04 -.641E-05
   -.248E+02 -.485E+02 0.571E+00   0.280E+02 0.548E+02 -.615E+00   -.273E+01 -.533E+01 0.787E-01   0.119E-04 0.746E-04 0.130E-04
   -.111E+02 0.254E+02 -.450E+02   0.123E+02 -.280E+02 0.496E+02   -.115E+01 0.262E+01 -.464E+01   0.111E-04 0.352E-05 0.658E-04
   0.553E+00 0.232E+01 -.221E+00   -.645E+00 -.294E+01 0.213E+00   0.802E-02 -.505E+00 -.907E-01   -.442E-04 0.185E-03 0.103E-04
 -----------------------------------------------------------------------------------------------
   0.877E-01 0.102E+01 0.689E-01   0.000E+00 0.355E-14 -.278E-16   -.876E-01 -.102E+01 -.690E-01   -.665E-04 0.309E-03 0.308E-04
 
 
 POSITION                                       TOTAL-FORCE (eV/Angst)
 -----------------------------------------------------------------------------------
      5.45675      4.02676      3.55019        -0.108750      0.068339      0.156892
      4.01608      4.76233      4.32088        -0.307952      0.009422     -0.038096
      5.57618      5.57229      4.39135         0.511571      1.009603      0.035673
      5.32295      4.09667      5.33946        -0.010153      0.037703     -0.055843
      5.09162      4.62417      4.40335        -0.084631     -1.124873     -0.098741
 -----------------------------------------------------------------------------------
    total drift:                                0.000085      0.000194     -0.000115


--------------------------------------------------------------------------------------------------------



  FREE ENERGIE OF THE ION-ELECTRON SYSTEM (eV)
  ---------------------------------------------------
  free  energy   TOTEN  =       -24.00952424 eV

  energy  without entropy=      -24.00952424  energy(sigma->0) =      -24.00952424
 
 d Force =-0.6035243E-02[-0.682E-02,-0.525E-02]  d Energy =-0.6030878E-02-0.437E-05
 d Force =-0.4020563E+00[-0.403E+00,-0.401E+00]  d Ewald  =-0.4020537E+00-0.257E-05


--------------------------------------------------------------------------------------------------------


    POTLOK:  cpu time    0.1342: real time    0.1342


--------------------------------------------------------------------------------------------------------


 stress matrix after NEB project (eV)
      0.14503      0.50767      0.10202
      0.50767      0.50172     -0.03491
      0.10202     -0.03491     -0.56672
  FORCES: max atom, RMS     1.132376    0.735752
  FORCE total and by dimension    1.645192    1.124873
  Stress total and by dimension    1.064258    0.566725
           RANDOM_SEED =         581340280               30                0
   IONSTEP:  cpu time    0.0002: real time    0.0002

  ENERGY OF THE ELECTRON-ION-THERMOSTAT SYSTEM (eV)
  ---------------------------------------------------
% ion-electron   TOTEN  =       -24.009524  see above
  kinetic energy EKIN   =         0.009408
  kin. lattice  EKIN_LAT=         0.000000  (temperature   18.20 K)
  nose potential ES     =         0.000000
  nose kinetic   EPS    =         0.000000
  ---------------------------------------------------
  total energy   ETOTAL =       -24.000116 eV

  maximum distance moved by ions :      0.41E-03


 mean value of Nose-termostat <S>:     1.000 mean value of <T> :    29.340
 mean temperature <T/S>/<1/S>  :    29.340

    WAVPRE:  cpu time    0.0461: real time    0.0461
    FEWALD:  cpu time    0.0003: real time    0.0003
    ORTHCH:  cpu time    0.0080: real time    0.0080
 Prediction of Wavefunctions ALPHA= 2.136 BETA=-1.165
    POTLOK:  cpu time    0.1290: real time    0.1290
    EDDIAG:  cpu time    0.0341: real time    0.0341
     LOOP+:  cpu time    1.9841: real time    1.9842
    4ORBIT:  cpu time    0.0000: real time    0.0010

 total amount of memory used by VASP MPI-rank0    56647. kBytes
=======================================================================

   base      :      30000. kBytes
   nonl-proj :       2751. kBytes
   fftplans  :       8575. kBytes
   grid      :      13527. kBytes
   one-center:          6. kBytes
   wavefun   :       1788. kBytes
 
  
  
 General timing and accounting informations for this job:
 ========================================================
  
                  Total CPU time used (sec):       26.897
                            User time (sec):       25.466
                          System time (sec):        1.431
                         Elapsed time (sec):       27.563
  
                   Maximum memory used (kb):      179932.
                   Average memory used (kb):           0.
  
                          Minor page faults:       267941
                          Major page faults:          147
                 Voluntary context switches:          512
