   5   5   0   0
  0.2084776E+03  0.1023329E-08  0.1007330E-08  0.1011362E-08  0.5000000E-15
  1.000000000000000E-004
  CAR 
 unknown system                          
      2.69691890    -18.99719383  301     -8.36693736      1.00000000
    -18.997  0.0000E+00  0.0000E+00
    -18.925  0.0000E+00  0.0000E+00
    -18.853  0.0000E+00  0.0000E+00
    -18.780  0.0000E+00  0.0000E+00
    -18.708  0.0000E+00  0.0000E+00
    -18.636  0.0000E+00  0.0000E+00
    -18.563  0.0000E+00  0.0000E+00
    -18.491  0.0000E+00  0.0000E+00
    -18.419  0.0000E+00  0.0000E+00
    -18.346  0.0000E+00  0.0000E+00
    -18.274  0.0000E+00  0.0000E+00
    -18.202  0.0000E+00  0.0000E+00
    -18.129  0.1227E-13  0.8826E-15
    -18.057  0.6695E-12  0.4903E-13
    -17.985  0.2883E-10  0.2123E-11
    -17.912  0.9619E-09  0.7130E-10
    -17.840  0.2486E-07  0.1859E-08
    -17.768  0.4979E-06  0.3766E-07
    -17.696  0.7729E-05  0.5935E-06
    -17.623  0.9303E-04  0.7283E-05
    -17.551  0.8684E-03  0.6972E-04
    -17.479  0.6288E-02  0.5218E-03
    -17.406  0.3533E-01  0.3062E-02
    -17.334  0.1541E+00  0.1414E-01
    -17.262  0.5219E+00  0.5166E-01
    -17.189  0.1373E+01  0.1503E+00
    -17.117  0.2805E+01  0.3519E+00
    -17.045  0.4453E+01  0.6719E+00
    -16.972  0.5494E+01  0.1067E+01
    -16.900  0.5270E+01  0.1445E+01
    -16.828  0.3930E+01  0.1728E+01
    -16.755  0.2279E+01  0.1891E+01
    -16.683  0.1028E+01  0.1965E+01
    -16.611  0.3606E+00  0.1991E+01
    -16.539  0.9840E-01  0.1998E+01
    -16.466  0.2089E-01  0.2000E+01
    -16.394  0.3449E-02  0.2000E+01
    -16.322  0.4430E-03  0.2000E+01
    -16.249  0.4427E-04  0.2000E+01
    -16.177  0.3442E-05  0.2000E+01
    -16.105  0.2082E-06  0.2000E+01
    -16.032  0.9795E-08  0.2000E+01
    -15.960  0.3585E-09  0.2000E+01
    -15.888  0.1021E-10  0.2000E+01
    -15.815  0.2272E-12  0.2000E+01
    -15.743  0.3101E-14  0.2000E+01
    -15.671  0.0000E+00  0.2000E+01
    -15.598  0.0000E+00  0.2000E+01
    -15.526  0.0000E+00  0.2000E+01
    -15.454  0.0000E+00  0.2000E+01
    -15.382  0.0000E+00  0.2000E+01
    -15.309  0.0000E+00  0.2000E+01
    -15.237  0.0000E+00  0.2000E+01
    -15.165  0.0000E+00  0.2000E+01
    -15.092  0.0000E+00  0.2000E+01
    -15.020  0.0000E+00  0.2000E+01
    -14.948  0.0000E+00  0.2000E+01
    -14.875  0.0000E+00  0.2000E+01
    -14.803  0.0000E+00  0.2000E+01
    -14.731  0.0000E+00  0.2000E+01
    -14.658  0.0000E+00  0.2000E+01
    -14.586  0.0000E+00  0.2000E+01
    -14.514  0.0000E+00  0.2000E+01
    -14.441  0.0000E+00  0.2000E+01
    -14.369  0.0000E+00  0.2000E+01
    -14.297  0.0000E+00  0.2000E+01
    -14.224  0.0000E+00  0.2000E+01
    -14.152  0.0000E+00  0.2000E+01
    -14.080  0.0000E+00  0.2000E+01
    -14.008  0.0000E+00  0.2000E+01
    -13.935  0.0000E+00  0.2000E+01
    -13.863  0.0000E+00  0.2000E+01
    -13.791  0.0000E+00  0.2000E+01
    -13.718  0.0000E+00  0.2000E+01
    -13.646  0.0000E+00  0.2000E+01
    -13.574  0.0000E+00  0.2000E+01
    -13.501  0.0000E+00  0.2000E+01
    -13.429  0.0000E+00  0.2000E+01
    -13.357  0.0000E+00  0.2000E+01
    -13.284  0.0000E+00  0.2000E+01
    -13.212  0.0000E+00  0.2000E+01
    -13.140  0.0000E+00  0.2000E+01
    -13.067  0.0000E+00  0.2000E+01
    -12.995  0.0000E+00  0.2000E+01
    -12.923  0.0000E+00  0.2000E+01
    -12.851  0.0000E+00  0.2000E+01
    -12.778  0.0000E+00  0.2000E+01
    -12.706  0.0000E+00  0.2000E+01
    -12.634  0.0000E+00  0.2000E+01
    -12.561  0.0000E+00  0.2000E+01
    -12.489  0.0000E+00  0.2000E+01
    -12.417  0.0000E+00  0.2000E+01
    -12.344  0.0000E+00  0.2000E+01
    -12.272  0.0000E+00  0.2000E+01
    -12.200  0.0000E+00  0.2000E+01
    -12.127  0.0000E+00  0.2000E+01
    -12.055  0.0000E+00  0.2000E+01
    -11.983  0.0000E+00  0.2000E+01
    -11.910  0.0000E+00  0.2000E+01
    -11.838  0.0000E+00  0.2000E+01
    -11.766  0.0000E+00  0.2000E+01
    -11.694  0.0000E+00  0.2000E+01
    -11.621  0.0000E+00  0.2000E+01
    -11.549  0.0000E+00  0.2000E+01
    -11.477  0.0000E+00  0.2000E+01
    -11.404  0.0000E+00  0.2000E+01
    -11.332  0.0000E+00  0.2000E+01
    -11.260  0.0000E+00  0.2000E+01
    -11.187  0.0000E+00  0.2000E+01
    -11.115  0.0000E+00  0.2000E+01
    -11.043  0.0000E+00  0.2000E+01
    -10.970  0.0000E+00  0.2000E+01
    -10.898  0.0000E+00  0.2000E+01
    -10.826  0.0000E+00  0.2000E+01
    -10.753  0.0000E+00  0.2000E+01
    -10.681  0.0000E+00  0.2000E+01
    -10.609  0.2718E-15  0.2000E+01
    -10.536  0.2933E-13  0.2000E+01
    -10.464  0.1504E-11  0.2000E+01
    -10.392  0.6061E-10  0.2000E+01
    -10.320  0.1908E-08  0.2000E+01
    -10.247  0.4692E-07  0.2000E+01
    -10.175  0.9024E-06  0.2000E+01
    -10.103  0.1358E-04  0.2000E+01
    -10.030  0.1601E-03  0.2000E+01
     -9.958  0.1480E-02  0.2000E+01
     -9.886  0.1074E-01  0.2001E+01
     -9.813  0.6123E-01  0.2005E+01
     -9.741  0.2747E+00  0.2025E+01
     -9.669  0.9714E+00  0.2095E+01
     -9.596  0.2711E+01  0.2289E+01
     -9.524  0.5980E+01  0.2719E+01
     -9.452  0.1045E+02  0.3470E+01
     -9.379  0.1448E+02  0.4510E+01
     -9.307  0.1595E+02  0.5656E+01
     -9.235  0.1397E+02  0.6660E+01
     -9.163  0.9736E+01  0.7359E+01
     -9.090  0.5403E+01  0.7747E+01
     -9.018  0.2385E+01  0.7919E+01
     -8.946  0.8368E+00  0.7979E+01
     -8.873  0.2329E+00  0.7996E+01
     -8.801  0.5133E-01  0.7999E+01
     -8.729  0.8940E-02  0.8000E+01
     -8.656  0.1227E-02  0.8000E+01
     -8.584  0.1326E-03  0.8000E+01
     -8.512  0.1126E-04  0.8000E+01
     -8.439  0.7492E-06  0.8000E+01
     -8.367  0.3905E-07  0.8000E+01
     -8.295  0.1592E-08  0.8000E+01
     -8.222  0.5071E-10  0.8000E+01
     -8.150  0.1262E-11  0.8000E+01
     -8.078  0.2419E-13  0.8000E+01
     -8.006  0.0000E+00  0.8000E+01
     -7.933  0.0000E+00  0.8000E+01
     -7.861  0.0000E+00  0.8000E+01
     -7.789  0.0000E+00  0.8000E+01
     -7.716  0.0000E+00  0.8000E+01
     -7.644  0.0000E+00  0.8000E+01
     -7.572  0.0000E+00  0.8000E+01
     -7.499  0.0000E+00  0.8000E+01
     -7.427  0.0000E+00  0.8000E+01
     -7.355  0.0000E+00  0.8000E+01
     -7.282  0.0000E+00  0.8000E+01
     -7.210  0.0000E+00  0.8000E+01
     -7.138  0.0000E+00  0.8000E+01
     -7.065  0.0000E+00  0.8000E+01
     -6.993  0.0000E+00  0.8000E+01
     -6.921  0.0000E+00  0.8000E+01
     -6.848  0.0000E+00  0.8000E+01
     -6.776  0.0000E+00  0.8000E+01
     -6.704  0.0000E+00  0.8000E+01
     -6.632  0.0000E+00  0.8000E+01
     -6.559  0.0000E+00  0.8000E+01
     -6.487  0.0000E+00  0.8000E+01
     -6.415  0.0000E+00  0.8000E+01
     -6.342  0.0000E+00  0.8000E+01
     -6.270  0.0000E+00  0.8000E+01
     -6.198  0.0000E+00  0.8000E+01
     -6.125  0.0000E+00  0.8000E+01
     -6.053  0.0000E+00  0.8000E+01
     -5.981  0.0000E+00  0.8000E+01
     -5.908  0.0000E+00  0.8000E+01
     -5.836  0.0000E+00  0.8000E+01
     -5.764  0.0000E+00  0.8000E+01
     -5.691  0.0000E+00  0.8000E+01
     -5.619  0.0000E+00  0.8000E+01
     -5.547  0.0000E+00  0.8000E+01
     -5.475  0.0000E+00  0.8000E+01
     -5.402  0.0000E+00  0.8000E+01
     -5.330  0.0000E+00  0.8000E+01
     -5.258  0.0000E+00  0.8000E+01
     -5.185  0.0000E+00  0.8000E+01
     -5.113  0.0000E+00  0.8000E+01
     -5.041  0.0000E+00  0.8000E+01
     -4.968  0.0000E+00  0.8000E+01
     -4.896  0.0000E+00  0.8000E+01
     -4.824  0.0000E+00  0.8000E+01
     -4.751  0.0000E+00  0.8000E+01
     -4.679  0.0000E+00  0.8000E+01
     -4.607  0.0000E+00  0.8000E+01
     -4.534  0.0000E+00  0.8000E+01
     -4.462  0.0000E+00  0.8000E+01
     -4.390  0.0000E+00  0.8000E+01
     -4.318  0.0000E+00  0.8000E+01
     -4.245  0.0000E+00  0.8000E+01
     -4.173  0.0000E+00  0.8000E+01
     -4.101  0.0000E+00  0.8000E+01
     -4.028  0.0000E+00  0.8000E+01
     -3.956  0.0000E+00  0.8000E+01
     -3.884  0.0000E+00  0.8000E+01
     -3.811  0.0000E+00  0.8000E+01
     -3.739  0.0000E+00  0.8000E+01
     -3.667  0.0000E+00  0.8000E+01
     -3.594  0.0000E+00  0.8000E+01
     -3.522  0.0000E+00  0.8000E+01
     -3.450  0.0000E+00  0.8000E+01
     -3.377  0.0000E+00  0.8000E+01
     -3.305  0.0000E+00  0.8000E+01
     -3.233  0.0000E+00  0.8000E+01
     -3.160  0.0000E+00  0.8000E+01
     -3.088  0.0000E+00  0.8000E+01
     -3.016  0.0000E+00  0.8000E+01
     -2.944  0.0000E+00  0.8000E+01
     -2.871  0.0000E+00  0.8000E+01
     -2.799  0.0000E+00  0.8000E+01
     -2.727  0.0000E+00  0.8000E+01
     -2.654  0.0000E+00  0.8000E+01
     -2.582  0.0000E+00  0.8000E+01
     -2.510  0.0000E+00  0.8000E+01
     -2.437  0.0000E+00  0.8000E+01
     -2.365  0.0000E+00  0.8000E+01
     -2.293  0.0000E+00  0.8000E+01
     -2.220  0.0000E+00  0.8000E+01
     -2.148  0.0000E+00  0.8000E+01
     -2.076  0.0000E+00  0.8000E+01
     -2.003  0.0000E+00  0.8000E+01
     -1.931  0.0000E+00  0.8000E+01
     -1.859  0.0000E+00  0.8000E+01
     -1.787  0.0000E+00  0.8000E+01
     -1.714  0.0000E+00  0.8000E+01
     -1.642  0.0000E+00  0.8000E+01
     -1.570  0.0000E+00  0.8000E+01
     -1.497  0.9656E-14  0.8000E+01
     -1.425  0.5155E-12  0.8000E+01
     -1.353  0.2149E-10  0.8000E+01
     -1.280  0.6985E-09  0.8000E+01
     -1.208  0.1769E-07  0.8000E+01
     -1.136  0.3495E-06  0.8000E+01
     -1.063  0.5387E-05  0.8000E+01
     -0.991  0.6480E-04  0.8000E+01
     -0.919  0.6089E-03  0.8000E+01
     -0.846  0.4470E-02  0.8000E+01
     -0.774  0.2565E-01  0.8002E+01
     -0.702  0.1151E+00  0.8010E+01
     -0.630  0.4038E+00  0.8039E+01
     -0.557  0.1108E+01  0.8119E+01
     -0.485  0.2381E+01  0.8290E+01
     -0.413  0.4001E+01  0.8577E+01
     -0.340  0.5260E+01  0.8955E+01
     -0.268  0.5408E+01  0.9344E+01
     -0.196  0.4347E+01  0.9656E+01
     -0.123  0.2731E+01  0.9853E+01
     -0.051  0.1340E+01  0.9949E+01
      0.021  0.5175E+00  0.9986E+01
      0.094  0.1791E+00  0.9999E+01
      0.166  0.1578E+00  0.1001E+02
      0.238  0.4664E+00  0.1004E+02
      0.311  0.1388E+01  0.1014E+02
      0.383  0.3373E+01  0.1039E+02
      0.455  0.6665E+01  0.1086E+02
      0.528  0.1075E+02  0.1164E+02
      0.600  0.1419E+02  0.1266E+02
      0.672  0.1527E+02  0.1375E+02
      0.744  0.1331E+02  0.1471E+02
      0.817  0.9330E+01  0.1538E+02
      0.889  0.5219E+01  0.1576E+02
      0.961  0.2314E+01  0.1592E+02
      1.034  0.8084E+00  0.1598E+02
      1.106  0.2218E+00  0.1600E+02
      1.178  0.4762E-01  0.1600E+02
      1.251  0.7985E-02  0.1600E+02
      1.323  0.1044E-02  0.1600E+02
      1.395  0.1063E-03  0.1600E+02
      1.468  0.8423E-05  0.1600E+02
      1.540  0.5189E-06  0.1600E+02
      1.612  0.2484E-07  0.1600E+02
      1.685  0.9236E-09  0.1600E+02
      1.757  0.2666E-10  0.1600E+02
      1.829  0.5982E-12  0.1600E+02
      1.901  0.9570E-14  0.1600E+02
      1.974  0.0000E+00  0.1600E+02
      2.046  0.0000E+00  0.1600E+02
      2.118  0.0000E+00  0.1600E+02
      2.191  0.0000E+00  0.1600E+02
      2.263  0.0000E+00  0.1600E+02
      2.335  0.0000E+00  0.1600E+02
      2.408  0.0000E+00  0.1600E+02
      2.480  0.0000E+00  0.1600E+02
      2.552  0.0000E+00  0.1600E+02
      2.625  0.0000E+00  0.1600E+02
      2.697  0.0000E+00  0.1600E+02
      2.70990467    -19.00900088  301     -8.36659576      1.00000000
    -19.009  0.0000E+00  0.0000E+00
    -18.937  0.0000E+00  0.0000E+00
    -18.864  0.0000E+00  0.0000E+00
    -18.792  0.0000E+00  0.0000E+00
    -18.719  0.0000E+00  0.0000E+00
    -18.647  0.0000E+00  0.0000E+00
    -18.575  0.0000E+00  0.0000E+00
    -18.502  0.0000E+00  0.0000E+00
    -18.430  0.0000E+00  0.0000E+00
    -18.357  0.0000E+00  0.0000E+00
    -18.285  0.0000E+00  0.0000E+00
    -18.213  0.0000E+00  0.0000E+00
    -18.140  0.1687E-14  0.1221E-15
    -18.068  0.9539E-13  0.7028E-14
    -17.995  0.4114E-11  0.3049E-12
    -17.923  0.1371E-09  0.1023E-10
    -17.851  0.3526E-08  0.2655E-09
    -17.778  0.7005E-07  0.5337E-08
    -17.706  0.1075E-05  0.8317E-07
    -17.633  0.1275E-04  0.1006E-05
    -17.561  0.1168E-03  0.9464E-05
    -17.489  0.8276E-03  0.6938E-04
    -17.416  0.4533E-02  0.3976E-03
    -17.344  0.1920E-01  0.1788E-02
    -17.271  0.6291E-01  0.6342E-02
    -17.199  0.1594E+00  0.1788E-01
    -17.127  0.3126E+00  0.4052E-01
    -17.054  0.4744E+00  0.7486E-01
    -16.982  0.5570E+00  0.1152E+00
    -16.910  0.5060E+00  0.1518E+00
    -16.837  0.3558E+00  0.1776E+00
    -16.765  0.1936E+00  0.1916E+00
    -16.692  0.8148E-01  0.1975E+00
    -16.620  0.2653E-01  0.1994E+00
    -16.548  0.6683E-02  0.1999E+00
    -16.475  0.1302E-02  0.2000E+00
    -16.403  0.1961E-03  0.2000E+00
    -16.330  0.2283E-04  0.2000E+00
    -16.258  0.2055E-05  0.2000E+00
    -16.186  0.1429E-06  0.2000E+00
    -16.113  0.7677E-08  0.2000E+00
    -16.041  0.3185E-09  0.2000E+00
    -15.968  0.1021E-10  0.2000E+00
    -15.896  0.2523E-12  0.2000E+00
    -15.824  0.4907E-14  0.2000E+00
    -15.751  0.0000E+00  0.2000E+00
    -15.679  0.0000E+00  0.2000E+00
    -15.606  0.0000E+00  0.2000E+00
    -15.534  0.0000E+00  0.2000E+00
    -15.462  0.0000E+00  0.2000E+00
    -15.389  0.0000E+00  0.2000E+00
    -15.317  0.0000E+00  0.2000E+00
    -15.244  0.0000E+00  0.2000E+00
    -15.172  0.0000E+00  0.2000E+00
    -15.100  0.0000E+00  0.2000E+00
    -15.027  0.0000E+00  0.2000E+00
    -14.955  0.0000E+00  0.2000E+00
    -14.882  0.0000E+00  0.2000E+00
    -14.810  0.0000E+00  0.2000E+00
    -14.738  0.0000E+00  0.2000E+00
    -14.665  0.0000E+00  0.2000E+00
    -14.593  0.0000E+00  0.2000E+00
    -14.520  0.0000E+00  0.2000E+00
    -14.448  0.0000E+00  0.2000E+00
    -14.376  0.0000E+00  0.2000E+00
    -14.303  0.0000E+00  0.2000E+00
    -14.231  0.0000E+00  0.2000E+00
    -14.158  0.0000E+00  0.2000E+00
    -14.086  0.0000E+00  0.2000E+00
    -14.014  0.0000E+00  0.2000E+00
    -13.941  0.0000E+00  0.2000E+00
    -13.869  0.0000E+00  0.2000E+00
    -13.796  0.0000E+00  0.2000E+00
    -13.724  0.0000E+00  0.2000E+00
    -13.652  0.0000E+00  0.2000E+00
    -13.579  0.0000E+00  0.2000E+00
    -13.507  0.0000E+00  0.2000E+00
    -13.434  0.0000E+00  0.2000E+00
    -13.362  0.0000E+00  0.2000E+00
    -13.290  0.0000E+00  0.2000E+00
    -13.217  0.0000E+00  0.2000E+00
    -13.145  0.0000E+00  0.2000E+00
    -13.073  0.0000E+00  0.2000E+00
    -13.000  0.0000E+00  0.2000E+00
    -12.928  0.0000E+00  0.2000E+00
    -12.855  0.0000E+00  0.2000E+00
    -12.783  0.0000E+00  0.2000E+00
    -12.711  0.0000E+00  0.2000E+00
    -12.638  0.0000E+00  0.2000E+00
    -12.566  0.0000E+00  0.2000E+00
    -12.493  0.0000E+00  0.2000E+00
    -12.421  0.0000E+00  0.2000E+00
    -12.349  0.0000E+00  0.2000E+00
    -12.276  0.0000E+00  0.2000E+00
    -12.204  0.0000E+00  0.2000E+00
    -12.131  0.0000E+00  0.2000E+00
    -12.059  0.0000E+00  0.2000E+00
    -11.987  0.0000E+00  0.2000E+00
    -11.914  0.0000E+00  0.2000E+00
    -11.842  0.0000E+00  0.2000E+00
    -11.769  0.0000E+00  0.2000E+00
    -11.697  0.0000E+00  0.2000E+00
    -11.625  0.0000E+00  0.2000E+00
    -11.552  0.0000E+00  0.2000E+00
    -11.480  0.0000E+00  0.2000E+00
    -11.407  0.0000E+00  0.2000E+00
    -11.335  0.0000E+00  0.2000E+00
    -11.263  0.0000E+00  0.2000E+00
    -11.190  0.0000E+00  0.2000E+00
    -11.118  0.0000E+00  0.2000E+00
    -11.045  0.0000E+00  0.2000E+00
    -10.973  0.0000E+00  0.2000E+00
    -10.901  0.0000E+00  0.2000E+00
    -10.828  0.0000E+00  0.2000E+00
    -10.756  0.0000E+00  0.2000E+00
    -10.683  0.0000E+00  0.2000E+00
    -10.611  0.0000E+00  0.2000E+00
    -10.539  0.3067E-15  0.2000E+00
    -10.466  0.2331E-13  0.2000E+00
    -10.394  0.1150E-11  0.2000E+00
    -10.321  0.4407E-10  0.2000E+00
    -10.249  0.1307E-08  0.2000E+00
    -10.177  0.3005E-07  0.2000E+00
    -10.104  0.5352E-06  0.2000E+00
    -10.032  0.7391E-05  0.2000E+00
     -9.959  0.7916E-04  0.2000E+00
     -9.887  0.6577E-03  0.2001E+00
     -9.815  0.4242E-02  0.2004E+00
     -9.742  0.2124E-01  0.2019E+00
     -9.670  0.8257E-01  0.2079E+00
     -9.597  0.2493E+00  0.2259E+00
     -9.525  0.5848E+00  0.2683E+00
     -9.453  0.1066E+01  0.3454E+00
     -9.380  0.1508E+01  0.4546E+00
     -9.308  0.1659E+01  0.5747E+00
     -9.235  0.1417E+01  0.6773E+00
     -9.163  0.9399E+00  0.7453E+00
     -9.091  0.4841E+00  0.7804E+00
     -9.018  0.1936E+00  0.7944E+00
     -8.946  0.6008E-01  0.7987E+00
     -8.874  0.1446E-01  0.7998E+00
     -8.801  0.2700E-02  0.8000E+00
     -8.729  0.3909E-03  0.8000E+00
     -8.656  0.4384E-04  0.8000E+00
     -8.584  0.3809E-05  0.8000E+00
     -8.512  0.2563E-06  0.8000E+00
     -8.439  0.1334E-07  0.8000E+00
     -8.367  0.5376E-09  0.8000E+00
     -8.294  0.1675E-10  0.8000E+00
     -8.222  0.4035E-12  0.8000E+00
     -8.150  0.7821E-14  0.8000E+00
     -8.077  0.0000E+00  0.8000E+00
     -8.005  0.0000E+00  0.8000E+00
     -7.932  0.0000E+00  0.8000E+00
     -7.860  0.0000E+00  0.8000E+00
     -7.788  0.0000E+00  0.8000E+00
     -7.715  0.0000E+00  0.8000E+00
     -7.643  0.0000E+00  0.8000E+00
     -7.570  0.0000E+00  0.8000E+00
     -7.498  0.0000E+00  0.8000E+00
     -7.426  0.0000E+00  0.8000E+00
     -7.353  0.0000E+00  0.8000E+00
     -7.281  0.0000E+00  0.8000E+00
     -7.208  0.0000E+00  0.8000E+00
     -7.136  0.0000E+00  0.8000E+00
     -7.064  0.0000E+00  0.8000E+00
     -6.991  0.0000E+00  0.8000E+00
     -6.919  0.0000E+00  0.8000E+00
     -6.846  0.0000E+00  0.8000E+00
     -6.774  0.0000E+00  0.8000E+00
     -6.702  0.0000E+00  0.8000E+00
     -6.629  0.0000E+00  0.8000E+00
     -6.557  0.0000E+00  0.8000E+00
     -6.484  0.0000E+00  0.8000E+00
     -6.412  0.0000E+00  0.8000E+00
     -6.340  0.0000E+00  0.8000E+00
     -6.267  0.0000E+00  0.8000E+00
     -6.195  0.0000E+00  0.8000E+00
     -6.122  0.0000E+00  0.8000E+00
     -6.050  0.0000E+00  0.8000E+00
     -5.978  0.0000E+00  0.8000E+00
     -5.905  0.0000E+00  0.8000E+00
     -5.833  0.0000E+00  0.8000E+00
     -5.760  0.0000E+00  0.8000E+00
     -5.688  0.0000E+00  0.8000E+00
     -5.616  0.0000E+00  0.8000E+00
     -5.543  0.0000E+00  0.8000E+00
     -5.471  0.0000E+00  0.8000E+00
     -5.398  0.0000E+00  0.8000E+00
     -5.326  0.0000E+00  0.8000E+00
     -5.254  0.0000E+00  0.8000E+00
     -5.181  0.0000E+00  0.8000E+00
     -5.109  0.0000E+00  0.8000E+00
     -5.037  0.0000E+00  0.8000E+00
     -4.964  0.0000E+00  0.8000E+00
     -4.892  0.0000E+00  0.8000E+00
     -4.819  0.0000E+00  0.8000E+00
     -4.747  0.0000E+00  0.8000E+00
     -4.675  0.0000E+00  0.8000E+00
     -4.602  0.0000E+00  0.8000E+00
     -4.530  0.0000E+00  0.8000E+00
     -4.457  0.0000E+00  0.8000E+00
     -4.385  0.0000E+00  0.8000E+00
     -4.313  0.0000E+00  0.8000E+00
     -4.240  0.0000E+00  0.8000E+00
     -4.168  0.0000E+00  0.8000E+00
     -4.095  0.0000E+00  0.8000E+00
     -4.023  0.0000E+00  0.8000E+00
     -3.951  0.0000E+00  0.8000E+00
     -3.878  0.0000E+00  0.8000E+00
     -3.806  0.0000E+00  0.8000E+00
     -3.733  0.0000E+00  0.8000E+00
     -3.661  0.0000E+00  0.8000E+00
     -3.589  0.0000E+00  0.8000E+00
     -3.516  0.0000E+00  0.8000E+00
     -3.444  0.0000E+00  0.8000E+00
     -3.371  0.0000E+00  0.8000E+00
     -3.299  0.0000E+00  0.8000E+00
     -3.227  0.0000E+00  0.8000E+00
     -3.154  0.0000E+00  0.8000E+00
     -3.082  0.0000E+00  0.8000E+00
     -3.009  0.0000E+00  0.8000E+00
     -2.937  0.0000E+00  0.8000E+00
     -2.865  0.0000E+00  0.8000E+00
     -2.792  0.0000E+00  0.8000E+00
     -2.720  0.0000E+00  0.8000E+00
     -2.647  0.0000E+00  0.8000E+00
     -2.575  0.0000E+00  0.8000E+00
     -2.503  0.0000E+00  0.8000E+00
     -2.430  0.0000E+00  0.8000E+00
     -2.358  0.0000E+00  0.8000E+00
     -2.285  0.0000E+00  0.8000E+00
     -2.213  0.0000E+00  0.8000E+00
     -2.141  0.0000E+00  0.8000E+00
     -2.068  0.0000E+00  0.8000E+00
     -1.996  0.0000E+00  0.8000E+00
     -1.923  0.0000E+00  0.8000E+00
     -1.851  0.0000E+00  0.8000E+00
     -1.779  0.0000E+00  0.8000E+00
     -1.706  0.0000E+00  0.8000E+00
     -1.634  0.0000E+00  0.8000E+00
     -1.561  0.0000E+00  0.8000E+00
     -1.489  0.0000E+00  0.8000E+00
     -1.417  0.2224E-14  0.8000E+00
     -1.344  0.1198E-12  0.8000E+00
     -1.272  0.5091E-11  0.8000E+00
     -1.199  0.1670E-09  0.8000E+00
     -1.127  0.4231E-08  0.8000E+00
     -1.055  0.8278E-07  0.8000E+00
     -0.982  0.1251E-05  0.8000E+00
     -0.910  0.1461E-04  0.8000E+00
     -0.838  0.1319E-03  0.8000E+00
     -0.765  0.9203E-03  0.8001E+00
     -0.693  0.4965E-02  0.8004E+00
     -0.620  0.2072E-01  0.8019E+00
     -0.548  0.6686E-01  0.8068E+00
     -0.476  0.1669E+00  0.8189E+00
     -0.403  0.3225E+00  0.8422E+00
     -0.331  0.4821E+00  0.8771E+00
     -0.258  0.5577E+00  0.9175E+00
     -0.186  0.4993E+00  0.9536E+00
     -0.114  0.3459E+00  0.9787E+00
     -0.041  0.1854E+00  0.9921E+00
      0.031  0.7707E-01  0.9977E+00
      0.104  0.2581E-01  0.9996E+00
      0.176  0.1236E-01  0.1000E+01
      0.248  0.2816E-01  0.1002E+01
      0.321  0.9256E-01  0.1009E+01
      0.393  0.2517E+00  0.1027E+01
      0.466  0.5486E+00  0.1067E+01
      0.538  0.9623E+00  0.1137E+01
      0.610  0.1361E+01  0.1235E+01
      0.683  0.1553E+01  0.1348E+01
      0.755  0.1422E+01  0.1451E+01
      0.828  0.1042E+01  0.1526E+01
      0.900  0.6058E+00  0.1570E+01
      0.972  0.2783E+00  0.1590E+01
      1.045  0.1005E+00  0.1597E+01
      1.117  0.2839E-01  0.1599E+01
      1.190  0.6260E-02  0.1600E+01
      1.262  0.1075E-02  0.1600E+01
      1.334  0.1435E-03  0.1600E+01
      1.407  0.1487E-04  0.1600E+01
      1.479  0.1195E-05  0.1600E+01
      1.552  0.7446E-07  0.1600E+01
      1.624  0.3593E-08  0.1600E+01
      1.696  0.1342E-09  0.1600E+01
      1.769  0.3881E-11  0.1600E+01
      1.841  0.8680E-13  0.1600E+01
      1.914  0.1457E-14  0.1600E+01
      1.986  0.0000E+00  0.1600E+01
      2.058  0.0000E+00  0.1600E+01
      2.131  0.0000E+00  0.1600E+01
      2.203  0.0000E+00  0.1600E+01
      2.276  0.0000E+00  0.1600E+01
      2.348  0.0000E+00  0.1600E+01
      2.420  0.0000E+00  0.1600E+01
      2.493  0.0000E+00  0.1600E+01
      2.565  0.0000E+00  0.1600E+01
      2.638  0.0000E+00  0.1600E+01
      2.710  0.0000E+00  0.1600E+01
