       N       E                     dE             d eps       ncg     rms          rms(c)
DAV:   1     0.117771260456E+02    0.11777E+02   -0.20319E+03    96   0.417E+02
DAV:   2    -0.237582539306E+02   -0.35535E+02   -0.35535E+02    72   0.113E+02
DAV:   3    -0.271660378446E+02   -0.34078E+01   -0.34078E+01    64   0.394E+01
DAV:   4    -0.273061074013E+02   -0.14007E+00   -0.14007E+00   128   0.867E+00
DAV:   5    -0.273061517962E+02   -0.44395E-04   -0.44394E-04    88   0.168E-01    0.841E+00
RMM:   6    -0.246077302867E+02    0.26984E+01   -0.49196E+00    64   0.135E+01    0.416E+00
RMM:   7    -0.241505871451E+02    0.45714E+00   -0.10456E+00    64   0.588E+00    0.223E+00
RMM:   8    -0.240072331452E+02    0.14335E+00   -0.16236E-01    64   0.285E+00    0.229E-01
RMM:   9    -0.240017260930E+02    0.55071E-02   -0.10654E-02    64   0.683E-01    0.191E-01
RMM:  10    -0.239952669302E+02    0.64592E-02   -0.24555E-02    64   0.848E-01    0.269E-01
RMM:  11    -0.239962656774E+02   -0.99875E-03   -0.95580E-03    64   0.600E-01    0.102E-01
RMM:  12    -0.240053580255E+02   -0.90923E-02   -0.26999E-03    64   0.317E-01    0.116E-01
RMM:  13    -0.240059710399E+02   -0.61301E-03   -0.10864E-03    64   0.180E-01    0.398E-02
RMM:  14    -0.240088592259E+02   -0.28882E-02   -0.11901E-03    64   0.209E-01    0.291E-02
RMM:  15    -0.240090581116E+02   -0.19889E-03   -0.44205E-05    64   0.396E-02    0.230E-02
RMM:  16    -0.240092803417E+02   -0.22223E-03   -0.19182E-04    64   0.791E-02    0.999E-03
RMM:  17    -0.240093096628E+02   -0.29321E-04   -0.19774E-05    64   0.262E-02    0.133E-03
RMM:  18    -0.240093258014E+02   -0.16139E-04   -0.97371E-07    48   0.782E-03    0.926E-04
RMM:  19    -0.240093288044E+02   -0.30031E-05   -0.43199E-07    48   0.413E-03    0.457E-04
RMM:  20    -0.240093305329E+02   -0.17284E-05   -0.25400E-08    37   0.162E-03    0.228E-04
RMM:  21    -0.240093309258E+02   -0.39297E-06   -0.52515E-08    39   0.189E-03
    1 T=     1. E= -.24008983E+02 F= -.24009331E+02 E0= -.24009331E+02  EK= 0.34807E-03 SP= 0.00E+00 SK= 0.00E+00
       N       E                     dE             d eps       ncg     rms          rms(c)
DAV:   1    -0.240120533128E+02   -0.27228E-02   -0.31784E-03    64   0.502E-01    0.298E-02
RMM:   2    -0.240120244738E+02    0.28839E-04   -0.61838E-05    64   0.576E-02    0.135E-02
RMM:   3    -0.240120235805E+02    0.89331E-06   -0.56745E-05    64   0.432E-02    0.652E-03
RMM:   4    -0.240120232541E+02    0.32641E-06   -0.10439E-06    48   0.908E-03
    2 T=     6. E= -.24009036E+02 F= -.24012023E+02 E0= -.24012023E+02  EK= 0.29868E-02 SP= 0.00E+00 SK= 0.00E+00
       N       E                     dE             d eps       ncg     rms          rms(c)
DAV:   1    -0.240166944805E+02   -0.46709E-02   -0.34909E-03    64   0.487E-01    0.333E-02
RMM:   2    -0.240166567767E+02    0.37704E-04   -0.87845E-05    64   0.731E-02    0.141E-02
RMM:   3    -0.240166554933E+02    0.12834E-05   -0.76738E-05    64   0.515E-02    0.496E-03
RMM:   4    -0.240166548024E+02    0.69089E-06   -0.26695E-06    60   0.114E-02
    3 T=    15. E= -.24009131E+02 F= -.24016655E+02 E0= -.24016655E+02  EK= 0.75237E-02 SP= 0.00E+00 SK= 0.00E+00
       N       E                     dE             d eps       ncg     rms          rms(c)
DAV:   1    -0.240221085859E+02   -0.54531E-02   -0.16665E-03    64   0.228E-01    0.776E-02
RMM:   2    -0.240219263345E+02    0.18225E-03   -0.69797E-04    64   0.149E-01    0.200E-02
RMM:   3    -0.240219281157E+02   -0.17812E-05   -0.14217E-04    64   0.732E-02    0.433E-03
RMM:   4    -0.240219289110E+02   -0.79530E-06   -0.31991E-06    60   0.152E-02
    4 T=    25. E= -.24009231E+02 F= -.24021929E+02 E0= -.24021929E+02  EK= 0.12698E-01 SP= 0.00E+00 SK= 0.00E+00
       N       E                     dE             d eps       ncg     rms          rms(c)
DAV:   1    -0.240263272468E+02   -0.43991E-02   -0.75190E-04    96   0.116E-01    0.781E-03
RMM:   2    -0.240263275720E+02   -0.32515E-06   -0.67787E-06    64   0.179E-02    0.364E-03
RMM:   3    -0.240263293455E+02   -0.17735E-05   -0.18699E-06    48   0.956E-03    0.126E-03
RMM:   4    -0.240263304653E+02   -0.11198E-05   -0.24094E-07    48   0.457E-03    0.502E-04
RMM:   5    -0.240263311858E+02   -0.72047E-06   -0.54239E-08    44   0.189E-03
    5 T=    33. E= -.24009313E+02 F= -.24026331E+02 E0= -.24026331E+02  EK= 0.17018E-01 SP= 0.00E+00 SK= 0.00E+00
       N       E                     dE             d eps       ncg     rms          rms(c)
DAV:   1    -0.240285647146E+02   -0.22342E-02   -0.11485E-03    64   0.152E-01    0.159E-02
RMM:   2    -0.240285560498E+02    0.86648E-05   -0.33485E-05    64   0.406E-02    0.627E-03
RMM:   3    -0.240285565838E+02   -0.53396E-06   -0.17687E-05    64   0.255E-02    0.196E-03
RMM:   4    -0.240285569044E+02   -0.32060E-06   -0.56267E-07    48   0.613E-03
    6 T=    37. E= -.24009366E+02 F= -.24028557E+02 E0= -.24028557E+02  EK= 0.19191E-01 SP= 0.00E+00 SK= 0.00E+00
       N       E                     dE             d eps       ncg     rms          rms(c)
DAV:   1    -0.240279184159E+02    0.63817E-03   -0.91878E-04    64   0.133E-01    0.149E-03
RMM:   2    -0.240279201133E+02   -0.16974E-05   -0.28343E-06    57   0.176E-02    0.812E-04
RMM:   3    -0.240279212210E+02   -0.11077E-05   -0.17899E-07    48   0.429E-03    0.603E-04
RMM:   4    -0.240279226895E+02   -0.14686E-05   -0.29591E-08    39   0.216E-03    0.242E-04
RMM:   5    -0.240279239119E+02   -0.12224E-05   -0.67969E-08    45   0.185E-03    0.984E-05
RMM:   6    -0.240279241545E+02   -0.24262E-06    0.00000E+00    32   0.970E-04
    7 T=    36. E= -.24009364E+02 F= -.24027924E+02 E0= -.24027924E+02  EK= 0.18560E-01 SP= 0.00E+00 SK= 0.00E+00
       N       E                     dE             d eps       ncg     rms          rms(c)
DAV:   1    -0.240245948156E+02    0.33291E-02   -0.74935E-04    64   0.128E-01    0.586E-03
RMM:   2    -0.240245989517E+02   -0.41361E-05   -0.64963E-06    64   0.247E-02    0.222E-03
RMM:   3    -0.240246049293E+02   -0.59776E-05   -0.18596E-06    48   0.957E-03    0.480E-04
RMM:   4    -0.240246081669E+02   -0.32376E-05   -0.27339E-07    48   0.489E-03    0.442E-04
RMM:   5    -0.240246129482E+02   -0.47813E-05   -0.84740E-08    48   0.223E-03    0.231E-04
RMM:   6    -0.240246184239E+02   -0.54757E-05   -0.16175E-07    44   0.213E-03    0.330E-04
RMM:   7    -0.240246189660E+02   -0.54211E-06   -0.62554E-08    44   0.179E-03
    8 T=    30. E= -.24009301E+02 F= -.24024619E+02 E0= -.24024619E+02  EK= 0.15318E-01 SP= 0.00E+00 SK= 0.00E+00
       N       E                     dE             d eps       ncg     rms          rms(c)
DAV:   1    -0.240196999151E+02    0.49185E-02   -0.53418E-04    64   0.111E-01    0.160E-03
RMM:   2    -0.240197006014E+02   -0.68630E-06   -0.32129E-06    59   0.202E-02    0.109E-03
RMM:   3    -0.240197009091E+02   -0.30767E-06   -0.13071E-07    46   0.362E-03    0.735E-04
RMM:   4    -0.240197013798E+02   -0.47074E-06   -0.82888E-08    46   0.242E-03
    9 T=    20. E= -.24009201E+02 F= -.24019701E+02 E0= -.24019701E+02  EK= 0.10501E-01 SP= 0.00E+00 SK= 0.00E+00
       N       E                     dE             d eps       ncg     rms          rms(c)
DAV:   1    -0.240147940906E+02    0.49068E-02   -0.30288E-04    64   0.908E-02    0.160E-03
RMM:   2    -0.240147947090E+02   -0.61836E-06   -0.31079E-06    57   0.202E-02    0.106E-03
RMM:   3    -0.240147949584E+02   -0.24941E-06   -0.12743E-07    48   0.346E-03    0.703E-04
RMM:   4    -0.240147953557E+02   -0.39727E-06   -0.74076E-08    47   0.234E-03
   10 T=    11. E= -.24009097E+02 F= -.24014795E+02 E0= -.24014795E+02  EK= 0.56988E-02 SP= 0.00E+00 SK= 0.00E+00
