 vasp.5.4.4.18Apr17-6-g9f103f2a35 (build Nov 25 2021 15:25:00) complex          
  
 executed on             LinuxIFC date 2022.02.21  10:17:44
 running on   16 total cores
 distrk:  each k-point on   16 cores,    1 groups
 distr:  one band on NCORES_PER_BAND=   4 cores,    4 groups


--------------------------------------------------------------------------------------------------------


 INCAR:
 POTCAR:    PAW_PBE H 15Jun2001                   
 POTCAR:    PAW_PBE C 08Apr2002                   
 POTCAR:    PAW_PBE H 15Jun2001                   
   VRHFIN =H: ultrasoft test                                                    
   LEXCH  = PE                                                                  
   EATOM  =    12.4884 eV,    0.9179 Ry                                         
                                                                                
   TITEL  = PAW_PBE H 15Jun2001                                                 
   LULTRA =        F    use ultrasoft PP ?                                      
   IUNSCR =        0    unscreen: 0-lin 1-nonlin 2-no                           
   RPACOR =    0.000    partial core radius                                     
   POMASS =    1.000; ZVAL   =    1.000    mass and valenz                      
   RCORE  =    1.100    outmost cutoff radius                                   
   RWIGS  =    0.700; RWIGS  =    0.370    wigner-seitz radius (au A)           
   ENMAX  =  250.000; ENMIN  =  200.000 eV                                      
   RCLOC  =    0.701    cutoff for local pot                                    
   LCOR   =        T    correct aug charges                                     
   LPAW   =        T    paw PP                                                  
   EAUG   =  400.000                                                            
   RMAX   =    1.123    core radius for proj-oper                               
   RAUG   =    1.200    factor for augmentation sphere                          
   RDEP   =    1.112    radius for radial grids                                 
   RDEPT  =    0.926    core radius for aug-charge                              
                                                                                
   Atomic configuration                                                         
    2 entries                                                                   
     n  l   j            E        occ.                                          
     1  0  0.50        -6.4927   1.0000                                         
     2  1  0.50        -3.4015   0.0000                                         
   Description                                                                  
     l       E           TYP  RCUT    TYP  RCUT                                 
     0     -6.4927494     23  1.100                                             
     0      6.8029130     23  1.100                                             
     1     -4.0817478     23  1.100                                             
  local pseudopotential read in
  atomic valenz-charges read in
  non local Contribution for L=           0  read in
    real space projection operators read in
  non local Contribution for L=           0  read in
    real space projection operators read in
  non local Contribution for L=           1  read in
    real space projection operators read in
    PAW grid and wavefunctions read in
 
   number of l-projection  operators is LMAX  =           3
   number of lm-projection operators is LMMAX =           5
 
 POTCAR:    PAW_PBE C 08Apr2002                   
   VRHFIN =C: s2p2                                                              
   LEXCH  = PE                                                                  
   EATOM  =   147.1560 eV,   10.8157 Ry                                         
                                                                                
   TITEL  = PAW_PBE C 08Apr2002                                                 
   LULTRA =        F    use ultrasoft PP ?                                      
   IUNSCR =        1    unscreen: 0-lin 1-nonlin 2-no                           
   RPACOR =    1.200    partial core radius                                     
   POMASS =   12.011; ZVAL   =    4.000    mass and valenz                      
   RCORE  =    1.500    outmost cutoff radius                                   
   RWIGS  =    1.630; RWIGS  =    0.863    wigner-seitz radius (au A)           
   ENMAX  =  400.000; ENMIN  =  300.000 eV                                      
   ICORE  =        2    local potential                                         
   LCOR   =        T    correct aug charges                                     
   LPAW   =        T    paw PP                                                  
   EAUG   =  644.873                                                            
   DEXC   =    0.000                                                            
   RMAX   =    1.529    core radius for proj-oper                               
   RAUG   =    1.300    factor for augmentation sphere                          
   RDEP   =    1.501    radius for radial grids                                 
   RDEPT  =    1.300    core radius for aug-charge                              
                                                                                
   Atomic configuration                                                         
    4 entries                                                                   
     n  l   j            E        occ.                                          
     1  0  0.50      -273.3789   2.0000                                         
     2  0  0.50       -13.7508   2.0000                                         
     2  1  0.50        -5.2854   2.0000                                         
     3  2  1.50        -5.4423   0.0000                                         
   Description                                                                  
     l       E           TYP  RCUT    TYP  RCUT                                 
     0    -13.7508458     23  1.200                                             
     0     -8.2022199     23  1.200                                             
     1     -5.2854383     23  1.500                                             
     1     34.0145650     23  1.500                                             
     2     -5.4423304      7  1.500                                             
  local pseudopotential read in
  partial core-charges read in
  partial kinetic energy density read in
  atomic valenz-charges read in
  non local Contribution for L=           0  read in
    real space projection operators read in
  non local Contribution for L=           0  read in
    real space projection operators read in
  non local Contribution for L=           1  read in
    real space projection operators read in
  non local Contribution for L=           1  read in
    real space projection operators read in
    PAW grid and wavefunctions read in
 
   number of l-projection  operators is LMAX  =           4
   number of lm-projection operators is LMMAX =           8
 
  PAW_PBE H 15Jun2001                   :
 energy of atom  1       EATOM=  -12.4884
 kinetic energy error for atom=    0.0098 (will be added to EATOM!!)
  PAW_PBE C 08Apr2002                   :
 energy of atom  2       EATOM= -147.1560
 kinetic energy error for atom=    0.0288 (will be added to EATOM!!)
 
 
 POSCAR:  H  C                                   
  positions in cartesian coordinates
  No initial velocities read in
 exchange correlation table for  LEXCH =        8
   RHO(1)=    0.500       N(1)  =     2000
   RHO(2)=  100.500       N(2)  =     4000

 VTST: version 3.2, (02/03/18)

 CHAIN: initializing optimizer
 
 OPT: Using VASP Dynamics algorithm
 CHAIN: Read ICHAIN            0
 
 POSCAR:  H  C                                   
  positions in cartesian coordinates
  No initial velocities read in
 


--------------------------------------------------------------------------------------------------------


 ion  position               nearest neighbor table
   1  0.538  0.407  0.361-   5 1.11
   2  0.395  0.481  0.438-   5 1.12
   3  0.552  0.565  0.443-   5 1.11
   4  0.528  0.416  0.540-   5 1.11
   5  0.503  0.467  0.445-   1 1.11   3 1.11   4 1.11   2 1.12
 

IMPORTANT INFORMATION: All symmetrisations will be switched off!
NOSYMM: (Re-)initialisation of all symmetry stuff for point group C_1.

 
 

Automatic generation of k-mesh.
 generate k-points for:    2    2    2
Space group operators:
 irot       det(A)        alpha          n_x          n_y          n_z        tau_x        tau_y        tau_z
    1     1.000000     0.000001     1.000000     0.000000     0.000000     0.000000     0.000000     0.000000
 
 Subroutine IBZKPT returns following result:
 ===========================================
 
 Found      4 irreducible k-points:
 
 Following reciprocal coordinates:
            Coordinates               Weight
  0.250000  0.250000  0.250000      2.000000
 -0.250000  0.250000  0.250000      2.000000
  0.250000 -0.250000  0.250000      2.000000
 -0.250000 -0.250000  0.250000      2.000000
 
 Following cartesian coordinates:
            Coordinates               Weight
  0.024430  0.024780  0.024163      2.000000
 -0.024430  0.024856  0.024505      2.000000
  0.024430 -0.024856  0.024941      2.000000
 -0.024430 -0.024780  0.025282      2.000000
 


--------------------------------------------------------------------------------------------------------




 Dimension of arrays:
   k-points           NKPTS =      4   k-points in BZ     NKDIM =      4   number of bands    NBANDS=      8
   number of dos      NEDOS =    301   number of ions     NIONS =      5
   non local maximal  LDIM  =      4   non local SUM 2l+1 LMDIM =      8
   total plane-waves  NPLWV = 343000
   max r-space proj   IRMAX =      1   max aug-charges    IRDMAX=   4082
   dimension x,y,z NGX =    70 NGY =   70 NGZ =   70
   dimension x,y,z NGXF=   140 NGYF=  140 NGZF=  140
   support grid    NGXF=   140 NGYF=  140 NGZF=  140
   ions per type =               4   1
   NGX,Y,Z   is equivalent  to a cutoff of  11.37, 11.55, 11.51 a.u.
   NGXF,Y,Z  is equivalent  to a cutoff of  22.74, 23.11, 23.01 a.u.

 SYSTEM =  unknown system                          
 POSCAR =   H  C                                   

 Startparameter for this run:
   NWRITE =      2    write-flag & timer
   PREC   = a         normal or accurate (medium, high low for compatibility)
   ISTART =      0    job   : 0-new  1-cont  2-samecut
   ICHARG =      2    charge: 1-file 2-atom 10-const
   ISPIN  =      1    spin polarized calculation?
   LNONCOLLINEAR =      F non collinear calculations
   LSORBIT =      F    spin-orbit coupling
   INIWAV =      1    electr: 0-lowe 1-rand  2-diag
   LASPH  =      F    aspherical Exc in radial PAW
   METAGGA=      F    non-selfconsistent MetaGGA calc.

 Electronic Relaxation 1
   ENCUT  =  400.0 eV  29.40 Ry    5.42 a.u.  16.69 16.43 16.49*2*pi/ulx,y,z
   ENINI  =  400.0     initial cutoff
   ENAUG  =  644.9 eV  augmentation charge cutoff
   NELM   =    120;   NELMIN=  4; NELMDL= -5     # of ELM steps 
   EDIFF  = 0.1E-05   stopping-criterion for ELM
   LREAL  =      F    real-space projection
   NLSPLINE    = F    spline interpolate recip. space projectors
   LCOMPAT=      F    compatible to vasp.4.4
   GGA_COMPAT  = T    GGA compatible to vasp.4.4-vasp.4.6
   LMAXPAW     = -100 max onsite density
   LMAXMIX     =    2 max onsite mixed and CHGCAR
   VOSKOWN=      0    Vosko Wilk Nusair interpolation
   ROPT   =    0.00000   0.00000
 Ionic relaxation
   EDIFFG = 0.1E-04   stopping-criterion for IOM
   NSW    =     10    number of steps for IOM
   NBLOCK =      1;   KBLOCK =     10    inner block; outer block 
   IBRION =      0    ionic relax: 0-MD 1-quasi-New 2-CG
   NFREE  =      0    steps in history (QN), initial steepest desc. (CG)
   ISIF   =      2    stress and relaxation
   IWAVPR =     12    prediction:  0-non 1-charg 2-wave 3-comb
   ISYM   =      0    0-nonsym 1-usesym 2-fastsym
   LCORR  =      T    Harris-Foulkes like correction to forces

   POTIM  = 0.5000    time-step for ionic-motion
   TEIN   =    0.0    initial temperature
   TEBEG  =    0.0;   TEEND  =   0.0 temperature during run
   SMASS  =  -3.00    Nose mass-parameter (am)
   estimated Nose-frequenzy (Omega)   =  0.10E-29 period in steps =****** mass=  -0.239E-26a.u.
   SCALEE = 1.0000    scale energy and forces
   NPACO  =    256;   APACO  = 16.0  distance and # of slots for P.C.
   PSTRESS=    0.0 pullay stress

  Mass of Ions in am
   POMASS =   1.00 12.01
  Ionic Valenz
   ZVAL   =   1.00  4.00
  Atomic Wigner-Seitz radii
   RWIGS  =  -1.00 -1.00
  virtual crystal weights 
   VCA    =   1.00  1.00
   NELECT =       8.0000    total number of electrons
   NUPDOWN=      -1.0000    fix difference up-down

 DOS related values:
   EMIN   =  10.00;   EMAX   =-10.00  energy-range for DOS
   EFERMI =   0.00
   ISMEAR =     0;   SIGMA  =   0.20  broadening in eV -4-tet -1-fermi 0-gaus

 Electronic relaxation 2 (details)
   IALGO  =     68    algorithm
   LDIAG  =      T    sub-space diagonalisation (order eigenvalues)
   LSUBROT=      F    optimize rotation matrix (better conditioning)
   TURBO    =      0    0=normal 1=particle mesh
   IRESTART =      0    0=no restart 2=restart with 2 vectors
   NREBOOT  =      0    no. of reboots
   NMIN     =      0    reboot dimension
   EREF     =   0.00    reference energy to select bands
   IMIX   =      4    mixing-type and parameters
     AMIX     =   0.40;   BMIX     =  1.00
     AMIX_MAG =   1.60;   BMIX_MAG =  1.00
     AMIN     =   0.10
     WC   =   100.;   INIMIX=   1;  MIXPRE=   1;  MAXMIX= -45

 Intra band minimization:
   WEIMIN = 0.0010     energy-eigenvalue tresh-hold
   EBREAK =  0.31E-07  absolut break condition
   DEPER  =   0.30     relativ break condition  

   TIME   =   0.40     timestep for ELM

  volume/ion in A,a.u.               =     208.48      1406.88
  Fermi-wavevector in a.u.,A,eV,Ry     =   0.322920  0.610230  1.418780  0.104277
  Thomas-Fermi vector in A             =   1.211718
 
 Write flags
   LWAVE        =      F    write WAVECAR
   LDOWNSAMPLE  =      F    k-point downsampling of WAVECAR
   LCHARG       =      F    write CHGCAR
   LVTOT        =      F    write LOCPOT, total local potential
   LVHAR        =      F    write LOCPOT, Hartree potential only
   LELF         =      F    write electronic localiz. function (ELF)
   LORBIT       =      0    0 simple, 1 ext, 2 COOP (PROOUT), +10 PAW based schemes


 Dipole corrections
   LMONO  =      F    monopole corrections only (constant potential shift)
   LDIPOL =      F    correct potential (dipole corrections)
   IDIPOL =      0    1-x, 2-y, 3-z, 4-all directions 
   EPSILON=  1.0000000 bulk dielectric constant

 Exchange correlation treatment:
   GGA     =    --    GGA type
   LEXCH   =     8    internal setting for exchange type
   VOSKOWN=      0    Vosko Wilk Nusair interpolation
   LHFCALC =     F    Hartree Fock is set to
   LHFONE  =     F    Hartree Fock one center treatment
   AEXX    =    0.0000 exact exchange contribution

 Linear response parameters
   LEPSILON=     F    determine dielectric tensor
   LRPA    =     F    only Hartree local field effects (RPA)
   LNABLA  =     F    use nabla operator in PAW spheres
   LVEL    =     F    velocity operator in full k-point grid
   LINTERFAST=   F  fast interpolation
   KINTER  =     0    interpolate to denser k-point grid
   CSHIFT  =0.1000    complex shift for real part using Kramers Kronig
   OMEGAMAX=  -1.0    maximum frequency
   DEG_THRESHOLD= 0.2000000E-02 threshold for treating states as degnerate
   RTIME   =   -0.100 relaxation time in fs
  (WPLASMAI=    0.000 imaginary part of plasma frequency in eV, 0.658/RTIME)
   DFIELD  = 0.0000000 0.0000000 0.0000000 field for delta impulse in time
 
 Orbital magnetization related:
   ORBITALMAG=     F  switch on orbital magnetization
   LCHIMAG   =     F  perturbation theory with respect to B field
   DQ        =  0.001000  dq finite difference perturbation B field
   LLRAUG    =     F  two centre corrections for induced B field



--------------------------------------------------------------------------------------------------------


 molecular dynamics for ions
   using a microcanonical ensemble
 charge density and potential will be updated during run
 non-spin polarized calculation
 RMM-DIIS sequential band-by-band and
  variant of blocked Davidson during initial phase
 perform sub-space diagonalisation
    before iterative eigenvector-optimisation
 modified Broyden-mixing scheme, WC =      100.0
 initial mixing is a Kerker type mixing with AMIX =  0.4000 and BMIX =      1.0000
 Hartree-type preconditioning will be used
 using additional bands            4
 reciprocal scheme for non local part
 use partial core corrections
 calculate Harris-corrections to forces 
   (improved forces if not selfconsistent)
 use gradient corrections 
 use of overlap-Matrix (Vanderbilt PP)
 Gauss-broadening in eV      SIGMA  =   0.20


--------------------------------------------------------------------------------------------------------


  energy-cutoff  :      400.00
  volume of cell :     1042.39
      direct lattice vectors                 reciprocal lattice vectors
    10.233292541  0.000000000  0.000000000     0.097720259 -0.000152681 -0.000683271
     0.015738843 10.073287938  0.000000000     0.000000000  0.099272453 -0.001554576
     0.070952592  0.158352913 10.112132839     0.000000000  0.000000000  0.098891106

  length of vectors
    10.233292541 10.073300234 10.113621531     0.097722767  0.099284624  0.098891106


 
 k-points in units of 2pi/SCALE and weight: read from INCAR                         
   0.02443006  0.02477994  0.02416331       0.250
  -0.02443006  0.02485628  0.02450495       0.250
   0.02443006 -0.02485628  0.02494060       0.250
  -0.02443006 -0.02477994  0.02528224       0.250
 
 k-points in reciprocal lattice and weights: read from INCAR                         
   0.25000000  0.25000000  0.25000000       0.250
  -0.25000000  0.25000000  0.25000000       0.250
   0.25000000 -0.25000000  0.25000000       0.250
  -0.25000000 -0.25000000  0.25000000       0.250
 
 position of ions in fractional coordinates (direct lattice) 
   0.53810470  0.40694543  0.36065194
   0.39470920  0.48051493  0.43835986
   0.55234814  0.56545962  0.44346965
   0.52779205  0.41585924  0.53983651
   0.50295466  0.46705608  0.44482114
 
 position of ions in cartesian coordinates  (Angst):
   5.53857681  4.15638880  3.64696037
   4.07784023  4.90978078  4.43275318
   5.69270509  5.76626226  4.48442396
   5.44589843  4.27455460  5.45889846
   5.18579429  4.77522906  4.49809043
 


--------------------------------------------------------------------------------------------------------


 k-point  1 :   0.2500 0.2500 0.2500  plane waves:   18918
 k-point  2 :  -0.2500 0.2500 0.2500  plane waves:   18936
 k-point  3 :   0.2500-0.2500 0.2500  plane waves:   18950
 k-point  4 :  -0.2500-0.2500 0.2500  plane waves:   18933

 maximum and minimum number of plane-waves per node :      4765     4712

 maximum number of plane-waves:     18950
 maximum index in each direction: 
   IXMAX=   16   IYMAX=   16   IZMAX=   16
   IXMIN=  -16   IYMIN=  -16   IZMIN=  -16


 parallel 3D FFT for wavefunctions:
    minimum data exchange during FFTs selected (reduces bandwidth)
 parallel 3D FFT for charge:
    minimum data exchange during FFTs selected (reduces bandwidth)


 total amount of memory used by VASP MPI-rank0    55524. kBytes
=======================================================================

   base      :      30000. kBytes
   nonl-proj :       2806. kBytes
   fftplans  :       8577. kBytes
   grid      :      13527. kBytes
   one-center:          6. kBytes
   wavefun   :        608. kBytes
 
     INWAV:  cpu time    0.0000: real time    0.0001
 Broyden mixing: mesh for mixing (old mesh)
   NGX = 33   NGY = 33   NGZ = 33
  (NGX  =140   NGY  =140   NGZ  =140)
  gives a total of  35937 points

 initial charge density was supplied:
 charge density of overlapping atoms calculated
 number of electron       8.0000000 magnetization 
 keeping initial charge density in first step


--------------------------------------------------------------------------------------------------------


 Maximum index for augmentation-charges          161 (set IRDMAX)


--------------------------------------------------------------------------------------------------------


 First call to EWALD:  gamma=   0.175
 Maximum number of real-space cells 3x 3x 3
 Maximum number of reciprocal cells 3x 3x 3

    FEWALD:  cpu time    0.0015: real time    0.0015


--------------------------------------- Iteration      1(   1)  ---------------------------------------


    POTLOK:  cpu time    0.1415: real time    0.1511
    SETDIJ:  cpu time    0.0031: real time    0.0033
     EDDAV:  cpu time    0.2032: real time    0.2228
       DOS:  cpu time    0.0003: real time    0.0008
    --------------------------------------------
      LOOP:  cpu time    0.3481: real time    0.3781

 eigenvalue-minimisations  :    96
 total energy-change (2. order) : 0.1177713E+02  (-0.2031865E+03)
 number of electron       8.0000000 magnetization 
 augmentation part        8.0000000 magnetization 

 Free energy of the ion-electron system (eV)
  ---------------------------------------------------
  alpha Z        PSCENC =         0.23239983
  Ewald energy   TEWEN  =       126.56988376
  -Hartree energ DENC   =      -243.64285960
  -exchange      EXHF   =         0.00000000
  -V(xc)+E(xc)   XCENC  =        21.91589245
  PAW double counting   =       117.05815612     -117.66307307
  entropy T*S    EENTRO =        -0.00000000
  eigenvalues    EBANDS =       -89.73502797
  atomic energy  EATOM  =       197.04175453
  Solvation  Ediel_sol  =         0.00000000
  ---------------------------------------------------
  free energy    TOTEN  =        11.77712605 eV

  energy without entropy =       11.77712605  energy(sigma->0) =       11.77712605


--------------------------------------------------------------------------------------------------------




--------------------------------------- Iteration      1(   2)  ---------------------------------------


     EDDAV:  cpu time    0.1630: real time    0.1670
       DOS:  cpu time    0.0002: real time    0.0002
    --------------------------------------------
      LOOP:  cpu time    0.1632: real time    0.1672

 eigenvalue-minimisations  :    72
 total energy-change (2. order) :-0.3553538E+02  (-0.3553538E+02)
 number of electron       8.0000000 magnetization 
 augmentation part        8.0000000 magnetization 

 Free energy of the ion-electron system (eV)
  ---------------------------------------------------
  alpha Z        PSCENC =         0.23239983
  Ewald energy   TEWEN  =       126.56988376
  -Hartree energ DENC   =      -243.64285960
  -exchange      EXHF   =         0.00000000
  -V(xc)+E(xc)   XCENC  =        21.91589245
  PAW double counting   =       117.05815612     -117.66307307
  entropy T*S    EENTRO =        -0.00000000
  eigenvalues    EBANDS =      -125.27040795
  atomic energy  EATOM  =       197.04175453
  Solvation  Ediel_sol  =         0.00000000
  ---------------------------------------------------
  free energy    TOTEN  =       -23.75825393 eV

  energy without entropy =      -23.75825393  energy(sigma->0) =      -23.75825393


--------------------------------------------------------------------------------------------------------




--------------------------------------- Iteration      1(   3)  ---------------------------------------


     EDDAV:  cpu time    0.1501: real time    0.1538
       DOS:  cpu time    0.0002: real time    0.0002
    --------------------------------------------
      LOOP:  cpu time    0.1503: real time    0.1540

 eigenvalue-minimisations  :    64
 total energy-change (2. order) :-0.3407784E+01  (-0.3407784E+01)
 number of electron       8.0000000 magnetization 
 augmentation part        8.0000000 magnetization 

 Free energy of the ion-electron system (eV)
  ---------------------------------------------------
  alpha Z        PSCENC =         0.23239983
  Ewald energy   TEWEN  =       126.56988376
  -Hartree energ DENC   =      -243.64285960
  -exchange      EXHF   =         0.00000000
  -V(xc)+E(xc)   XCENC  =        21.91589245
  PAW double counting   =       117.05815612     -117.66307307
  entropy T*S    EENTRO =        -0.00000000
  eigenvalues    EBANDS =      -128.67819186
  atomic energy  EATOM  =       197.04175453
  Solvation  Ediel_sol  =         0.00000000
  ---------------------------------------------------
  free energy    TOTEN  =       -27.16603784 eV

  energy without entropy =      -27.16603784  energy(sigma->0) =      -27.16603784


--------------------------------------------------------------------------------------------------------




--------------------------------------- Iteration      1(   4)  ---------------------------------------


     EDDAV:  cpu time    0.2520: real time    0.2581
       DOS:  cpu time    0.0002: real time    0.0002
    --------------------------------------------
      LOOP:  cpu time    0.2521: real time    0.2582

 eigenvalue-minimisations  :   128
 total energy-change (2. order) :-0.1400696E+00  (-0.1400696E+00)
 number of electron       8.0000000 magnetization 
 augmentation part        8.0000000 magnetization 

 Free energy of the ion-electron system (eV)
  ---------------------------------------------------
  alpha Z        PSCENC =         0.23239983
  Ewald energy   TEWEN  =       126.56988376
  -Hartree energ DENC   =      -243.64285960
  -exchange      EXHF   =         0.00000000
  -V(xc)+E(xc)   XCENC  =        21.91589245
  PAW double counting   =       117.05815612     -117.66307307
  entropy T*S    EENTRO =        -0.00000000
  eigenvalues    EBANDS =      -128.81826142
  atomic energy  EATOM  =       197.04175453
  Solvation  Ediel_sol  =         0.00000000
  ---------------------------------------------------
  free energy    TOTEN  =       -27.30610740 eV

  energy without entropy =      -27.30610740  energy(sigma->0) =      -27.30610740


--------------------------------------------------------------------------------------------------------




--------------------------------------- Iteration      1(   5)  ---------------------------------------


     EDDAV:  cpu time    0.2443: real time    0.2501
       DOS:  cpu time    0.0002: real time    0.0002
    CHARGE:  cpu time    0.0205: real time    0.0209
    MIXING:  cpu time    0.0041: real time    0.0042
    --------------------------------------------
      LOOP:  cpu time    0.2691: real time    0.2753

 eigenvalue-minimisations  :    88
 total energy-change (2. order) :-0.4439490E-04  (-0.4439399E-04)
 number of electron       8.0000001 magnetization 
 augmentation part        0.2190743 magnetization 

 Broyden mixing:
  rms(total) = 0.84088E+00    rms(broyden)= 0.84066E+00
  rms(prec ) = 0.11897E+01
  weight for this iteration     100.00

 Free energy of the ion-electron system (eV)
  ---------------------------------------------------
  alpha Z        PSCENC =         0.23239983
  Ewald energy   TEWEN  =       126.56988376
  -Hartree energ DENC   =      -243.64285960
  -exchange      EXHF   =         0.00000000
  -V(xc)+E(xc)   XCENC  =        21.91589245
  PAW double counting   =       117.05815612     -117.66307307
  entropy T*S    EENTRO =        -0.00000000
  eigenvalues    EBANDS =      -128.81830581
  atomic energy  EATOM  =       197.04175453
  Solvation  Ediel_sol  =         0.00000000
  ---------------------------------------------------
  free energy    TOTEN  =       -27.30615180 eV

  energy without entropy =      -27.30615180  energy(sigma->0) =      -27.30615180


--------------------------------------------------------------------------------------------------------




--------------------------------------- Iteration      1(   6)  ---------------------------------------


    POTLOK:  cpu time    0.1342: real time    0.1371
    SETDIJ:  cpu time    0.0017: real time    0.0017
    EDDIAG:  cpu time    0.0443: real time    0.0522
  RMM-DIIS:  cpu time    0.1590: real time    0.1599
    ORTHCH:  cpu time    0.0015: real time    0.0015
       DOS:  cpu time    0.0002: real time    0.0002
    CHARGE:  cpu time    0.0192: real time    0.0193
    MIXING:  cpu time    0.0045: real time    0.0058
    --------------------------------------------
      LOOP:  cpu time    0.3646: real time    0.3777

 eigenvalue-minimisations  :    64
 total energy-change (2. order) : 0.2698422E+01  (-0.4919580E+00)
 number of electron       8.0000000 magnetization 
 augmentation part        0.1931203 magnetization 

 Broyden mixing:
  rms(total) = 0.41622E+00    rms(broyden)= 0.41613E+00
  rms(prec ) = 0.53793E+00
  weight for this iteration     100.00

 eigenvalues of (default mixing * dielectric matrix)
  average eigenvalue GAMMA=   1.2925
  1.2925

 Free energy of the ion-electron system (eV)
  ---------------------------------------------------
  alpha Z        PSCENC =         0.23239983
  Ewald energy   TEWEN  =       126.56988376
  -Hartree energ DENC   =      -262.69770530
  -exchange      EXHF   =         0.00000000
  -V(xc)+E(xc)   XCENC  =        23.07305952
  PAW double counting   =       232.76469609     -233.53516248
  entropy T*S    EENTRO =        -0.00000000
  eigenvalues    EBANDS =      -108.05665623
  atomic energy  EATOM  =       197.04175453
  Solvation  Ediel_sol  =         0.00000000
  ---------------------------------------------------
  free energy    TOTEN  =       -24.60773029 eV

  energy without entropy =      -24.60773029  energy(sigma->0) =      -24.60773029


--------------------------------------------------------------------------------------------------------




--------------------------------------- Iteration      1(   7)  ---------------------------------------


    POTLOK:  cpu time    0.1355: real time    0.1370
    SETDIJ:  cpu time    0.0020: real time    0.0021
    EDDIAG:  cpu time    0.0454: real time    0.0457
  RMM-DIIS:  cpu time    0.1539: real time    0.1555
    ORTHCH:  cpu time    0.0017: real time    0.0017
       DOS:  cpu time    0.0002: real time    0.0002
    CHARGE:  cpu time    0.0182: real time    0.0183
    MIXING:  cpu time    0.0043: real time    0.0043
    --------------------------------------------
      LOOP:  cpu time    0.3612: real time    0.3655

 eigenvalue-minimisations  :    64
 total energy-change (2. order) : 0.4571431E+00  (-0.1045561E+00)
 number of electron       8.0000000 magnetization 
 augmentation part        0.1833361 magnetization 

 Broyden mixing:
  rms(total) = 0.22283E+00    rms(broyden)= 0.22277E+00
  rms(prec ) = 0.26984E+00
  weight for this iteration     100.00

 eigenvalues of (default mixing * dielectric matrix)
  average eigenvalue GAMMA=   1.8374
  1.4360  2.2387

 Free energy of the ion-electron system (eV)
  ---------------------------------------------------
  alpha Z        PSCENC =         0.23239983
  Ewald energy   TEWEN  =       126.56988376
  -Hartree energ DENC   =      -273.71940625
  -exchange      EXHF   =         0.00000000
  -V(xc)+E(xc)   XCENC  =        23.88860431
  PAW double counting   =       349.73452336     -350.53905680
  entropy T*S    EENTRO =        -0.00000000
  eigenvalues    EBANDS =       -97.35928988
  atomic energy  EATOM  =       197.04175453
  Solvation  Ediel_sol  =         0.00000000
  ---------------------------------------------------
  free energy    TOTEN  =       -24.15058715 eV

  energy without entropy =      -24.15058714  energy(sigma->0) =      -24.15058715


--------------------------------------------------------------------------------------------------------




--------------------------------------- Iteration      1(   8)  ---------------------------------------


    POTLOK:  cpu time    0.1359: real time    0.1395
    SETDIJ:  cpu time    0.0016: real time    0.0016
    EDDIAG:  cpu time    0.0397: real time    0.0401
  RMM-DIIS:  cpu time    0.1543: real time    0.1554
    ORTHCH:  cpu time    0.0014: real time    0.0014
       DOS:  cpu time    0.0002: real time    0.0002
    CHARGE:  cpu time    0.0193: real time    0.0194
    MIXING:  cpu time    0.0045: real time    0.0045
    --------------------------------------------
      LOOP:  cpu time    0.3569: real time    0.3612

 eigenvalue-minimisations  :    64
 total energy-change (2. order) : 0.1433540E+00  (-0.1623558E-01)
 number of electron       8.0000000 magnetization 
 augmentation part        0.1820114 magnetization 

 Broyden mixing:
  rms(total) = 0.22937E-01    rms(broyden)= 0.22914E-01
  rms(prec ) = 0.51940E-01
  weight for this iteration     100.00

 eigenvalues of (default mixing * dielectric matrix)
  average eigenvalue GAMMA=   1.5377
  2.2485  0.9781  1.3864

 Free energy of the ion-electron system (eV)
  ---------------------------------------------------
  alpha Z        PSCENC =         0.23239983
  Ewald energy   TEWEN  =       126.56988376
  -Hartree energ DENC   =      -279.10903893
  -exchange      EXHF   =         0.00000000
  -V(xc)+E(xc)   XCENC  =        24.42281783
  PAW double counting   =       451.74447841     -452.51789571
  entropy T*S    EENTRO =        -0.00000000
  eigenvalues    EBANDS =       -92.39163287
  atomic energy  EATOM  =       197.04175453
  Solvation  Ediel_sol  =         0.00000000
  ---------------------------------------------------
  free energy    TOTEN  =       -24.00723315 eV

  energy without entropy =      -24.00723315  energy(sigma->0) =      -24.00723315


--------------------------------------------------------------------------------------------------------




--------------------------------------- Iteration      1(   9)  ---------------------------------------


    POTLOK:  cpu time    0.1344: real time    0.1356
    SETDIJ:  cpu time    0.0017: real time    0.0017
    EDDIAG:  cpu time    0.0383: real time    0.0390
  RMM-DIIS:  cpu time    0.1545: real time    0.1573
    ORTHCH:  cpu time    0.0014: real time    0.0014
       DOS:  cpu time    0.0002: real time    0.0002
    CHARGE:  cpu time    0.0180: real time    0.0182
    MIXING:  cpu time    0.0049: real time    0.0057
    --------------------------------------------
      LOOP:  cpu time    0.3534: real time    0.3591

 eigenvalue-minimisations  :    64
 total energy-change (2. order) : 0.5507052E-02  (-0.1065447E-02)
 number of electron       8.0000000 magnetization 
 augmentation part        0.1814734 magnetization 

 Broyden mixing:
  rms(total) = 0.19127E-01    rms(broyden)= 0.19123E-01
  rms(prec ) = 0.39583E-01
  weight for this iteration     100.00

 eigenvalues of (default mixing * dielectric matrix)
  average eigenvalue GAMMA=   2.0784
  1.0038  1.3545  2.9776  2.9776

 Free energy of the ion-electron system (eV)
  ---------------------------------------------------
  alpha Z        PSCENC =         0.23239983
  Ewald energy   TEWEN  =       126.56988376
  -Hartree energ DENC   =      -280.33110699
  -exchange      EXHF   =         0.00000000
  -V(xc)+E(xc)   XCENC  =        24.48888956
  PAW double counting   =       454.12290620     -454.89912419
  entropy T*S    EENTRO =        -0.00000000
  eigenvalues    EBANDS =       -91.22732880
  atomic energy  EATOM  =       197.04175453
  Solvation  Ediel_sol  =         0.00000000
  ---------------------------------------------------
  free energy    TOTEN  =       -24.00172609 eV

  energy without entropy =      -24.00172609  energy(sigma->0) =      -24.00172609


--------------------------------------------------------------------------------------------------------




--------------------------------------- Iteration      1(  10)  ---------------------------------------


    POTLOK:  cpu time    0.1315: real time    0.1325
    SETDIJ:  cpu time    0.0016: real time    0.0016
    EDDIAG:  cpu time    0.0381: real time    0.0387
  RMM-DIIS:  cpu time    0.1541: real time    0.1571
    ORTHCH:  cpu time    0.0014: real time    0.0014
       DOS:  cpu time    0.0002: real time    0.0002
    CHARGE:  cpu time    0.0178: real time    0.0179
    MIXING:  cpu time    0.0046: real time    0.0046
    --------------------------------------------
      LOOP:  cpu time    0.3492: real time    0.3539

 eigenvalue-minimisations  :    64
 total energy-change (2. order) : 0.6459163E-02  (-0.2455493E-02)
 number of electron       8.0000000 magnetization 
 augmentation part        0.1804478 magnetization 

 Broyden mixing:
  rms(total) = 0.26930E-01    rms(broyden)= 0.26928E-01
  rms(prec ) = 0.34615E-01
  weight for this iteration     100.00

 eigenvalues of (default mixing * dielectric matrix)
  average eigenvalue GAMMA=   1.7904
  3.0800  2.3935  0.9860  1.2462  1.2462

 Free energy of the ion-electron system (eV)
  ---------------------------------------------------
  alpha Z        PSCENC =         0.23239983
  Ewald energy   TEWEN  =       126.56988376
  -Hartree energ DENC   =      -282.49835727
  -exchange      EXHF   =         0.00000000
  -V(xc)+E(xc)   XCENC  =        24.55962698
  PAW double counting   =       439.31683353     -440.09643734
  entropy T*S    EENTRO =        -0.00000000
  eigenvalues    EBANDS =       -89.12097095
  atomic energy  EATOM  =       197.04175453
  Solvation  Ediel_sol  =         0.00000000
  ---------------------------------------------------
  free energy    TOTEN  =       -23.99526693 eV

  energy without entropy =      -23.99526693  energy(sigma->0) =      -23.99526693


--------------------------------------------------------------------------------------------------------




--------------------------------------- Iteration      1(  11)  ---------------------------------------


    POTLOK:  cpu time    0.1303: real time    0.1319
    SETDIJ:  cpu time    0.0016: real time    0.0016
    EDDIAG:  cpu time    0.0382: real time    0.0385
  RMM-DIIS:  cpu time    0.1499: real time    0.1517
    ORTHCH:  cpu time    0.0019: real time    0.0019
       DOS:  cpu time    0.0002: real time    0.0002
    CHARGE:  cpu time    0.0177: real time    0.0179
    MIXING:  cpu time    0.0049: real time    0.0049
    --------------------------------------------
      LOOP:  cpu time    0.3448: real time    0.3486

 eigenvalue-minimisations  :    64
 total energy-change (2. order) :-0.9987472E-03  (-0.9557969E-03)
 number of electron       8.0000000 magnetization 
 augmentation part        0.1808551 magnetization 

 Broyden mixing:
  rms(total) = 0.10200E-01    rms(broyden)= 0.10197E-01
  rms(prec ) = 0.15674E-01
  weight for this iteration     100.00

 eigenvalues of (default mixing * dielectric matrix)
  average eigenvalue GAMMA=   2.2918
  4.9543  3.0791  2.4251  1.2454  1.0236  1.0236

 Free energy of the ion-electron system (eV)
  ---------------------------------------------------
  alpha Z        PSCENC =         0.23239983
  Ewald energy   TEWEN  =       126.56988376
  -Hartree energ DENC   =      -282.38464192
  -exchange      EXHF   =         0.00000000
  -V(xc)+E(xc)   XCENC  =        24.57385793
  PAW double counting   =       448.10131057     -448.87302773
  entropy T*S    EENTRO =        -0.00000000
  eigenvalues    EBANDS =       -89.25780263
  atomic energy  EATOM  =       197.04175453
  Solvation  Ediel_sol  =         0.00000000
  ---------------------------------------------------
  free energy    TOTEN  =       -23.99626568 eV

  energy without entropy =      -23.99626568  energy(sigma->0) =      -23.99626568


--------------------------------------------------------------------------------------------------------




--------------------------------------- Iteration      1(  12)  ---------------------------------------


    POTLOK:  cpu time    0.1227: real time    0.1248
    SETDIJ:  cpu time    0.0019: real time    0.0019
    EDDIAG:  cpu time    0.0398: real time    0.0401
  RMM-DIIS:  cpu time    0.1553: real time    0.1572
    ORTHCH:  cpu time    0.0018: real time    0.0018
       DOS:  cpu time    0.0002: real time    0.0002
    CHARGE:  cpu time    0.0186: real time    0.0189
    MIXING:  cpu time    0.0050: real time    0.0051
    --------------------------------------------
      LOOP:  cpu time    0.3452: real time    0.3500

 eigenvalue-minimisations  :    64
 total energy-change (2. order) :-0.9092348E-02  (-0.2699949E-03)
 number of electron       8.0000000 magnetization 
 augmentation part        0.1810176 magnetization 

 Broyden mixing:
  rms(total) = 0.11628E-01    rms(broyden)= 0.11627E-01
  rms(prec ) = 0.15302E-01
  weight for this iteration     100.00

 eigenvalues of (default mixing * dielectric matrix)
  average eigenvalue GAMMA=   2.0220
  4.8725  2.9584  2.4206  1.1974  1.0228  1.0228  0.6595

 Free energy of the ion-electron system (eV)
  ---------------------------------------------------
  alpha Z        PSCENC =         0.23239983
  Ewald energy   TEWEN  =       126.56988376
  -Hartree energ DENC   =      -282.61413078
  -exchange      EXHF   =         0.00000000
  -V(xc)+E(xc)   XCENC  =        24.56540112
  PAW double counting   =       444.64774501     -445.41915186
  entropy T*S    EENTRO =        -0.00000000
  eigenvalues    EBANDS =       -89.02925963
  atomic energy  EATOM  =       197.04175453
  Solvation  Ediel_sol  =         0.00000000
  ---------------------------------------------------
  free energy    TOTEN  =       -24.00535803 eV

  energy without entropy =      -24.00535803  energy(sigma->0) =      -24.00535803


--------------------------------------------------------------------------------------------------------




--------------------------------------- Iteration      1(  13)  ---------------------------------------


    POTLOK:  cpu time    0.1229: real time    0.1252
    SETDIJ:  cpu time    0.0017: real time    0.0017
    EDDIAG:  cpu time    0.0395: real time    0.0399
  RMM-DIIS:  cpu time    0.1539: real time    0.1549
    ORTHCH:  cpu time    0.0018: real time    0.0018
       DOS:  cpu time    0.0002: real time    0.0002
    CHARGE:  cpu time    0.0180: real time    0.0181
    MIXING:  cpu time    0.0052: real time    0.0053
    --------------------------------------------
      LOOP:  cpu time    0.3432: real time    0.3472

 eigenvalue-minimisations  :    64
 total energy-change (2. order) :-0.6130144E-03  (-0.1086398E-03)
 number of electron       8.0000000 magnetization 
 augmentation part        0.1807643 magnetization 

 Broyden mixing:
  rms(total) = 0.39766E-02    rms(broyden)= 0.39762E-02
  rms(prec ) = 0.57240E-02
  weight for this iteration     100.00

 eigenvalues of (default mixing * dielectric matrix)
  average eigenvalue GAMMA=   2.5029
  6.3848  4.4090  2.5073  2.4476  1.2008  1.2008  0.9969  0.8762

 Free energy of the ion-electron system (eV)
  ---------------------------------------------------
  alpha Z        PSCENC =         0.23239983
  Ewald energy   TEWEN  =       126.56988376
  -Hartree energ DENC   =      -282.78852148
  -exchange      EXHF   =         0.00000000
  -V(xc)+E(xc)   XCENC  =        24.56996284
  PAW double counting   =       444.43359782     -445.20731940
  entropy T*S    EENTRO =        -0.00000000
  eigenvalues    EBANDS =       -88.85772894
  atomic energy  EATOM  =       197.04175453
  Solvation  Ediel_sol  =         0.00000000
  ---------------------------------------------------
  free energy    TOTEN  =       -24.00597104 eV

  energy without entropy =      -24.00597104  energy(sigma->0) =      -24.00597104


--------------------------------------------------------------------------------------------------------




--------------------------------------- Iteration      1(  14)  ---------------------------------------


    POTLOK:  cpu time    0.1214: real time    0.1235
    SETDIJ:  cpu time    0.0017: real time    0.0019
    EDDIAG:  cpu time    0.0423: real time    0.0431
  RMM-DIIS:  cpu time    0.1527: real time    0.1540
    ORTHCH:  cpu time    0.0014: real time    0.0014
       DOS:  cpu time    0.0002: real time    0.0002
    CHARGE:  cpu time    0.0177: real time    0.0179
    MIXING:  cpu time    0.0053: real time    0.0053
    --------------------------------------------
      LOOP:  cpu time    0.3427: real time    0.3473

 eigenvalue-minimisations  :    64
 total energy-change (2. order) :-0.2888186E-02  (-0.1190122E-03)
 number of electron       8.0000000 magnetization 
 augmentation part        0.1806630 magnetization 

 Broyden mixing:
  rms(total) = 0.29136E-02    rms(broyden)= 0.29122E-02
  rms(prec ) = 0.37719E-02
  weight for this iteration     100.00

 eigenvalues of (default mixing * dielectric matrix)
  average eigenvalue GAMMA=   2.3226
  6.4909  4.1471  2.6178  2.3798  1.1409  1.1409  1.0648  0.9605  0.9605

 Free energy of the ion-electron system (eV)
  ---------------------------------------------------
  alpha Z        PSCENC =         0.23239983
  Ewald energy   TEWEN  =       126.56988376
  -Hartree energ DENC   =      -282.77222570
  -exchange      EXHF   =         0.00000000
  -V(xc)+E(xc)   XCENC  =        24.55927550
  PAW double counting   =       443.82383956     -444.59863013
  entropy T*S    EENTRO =        -0.00000000
  eigenvalues    EBANDS =       -88.86515657
  atomic energy  EATOM  =       197.04175453
  Solvation  Ediel_sol  =         0.00000000
  ---------------------------------------------------
  free energy    TOTEN  =       -24.00885923 eV

  energy without entropy =      -24.00885923  energy(sigma->0) =      -24.00885923


--------------------------------------------------------------------------------------------------------




--------------------------------------- Iteration      1(  15)  ---------------------------------------


    POTLOK:  cpu time    0.1216: real time    0.1223
    SETDIJ:  cpu time    0.0018: real time    0.0018
    EDDIAG:  cpu time    0.0386: real time    0.0389
  RMM-DIIS:  cpu time    0.1528: real time    0.1554
    ORTHCH:  cpu time    0.0016: real time    0.0016
       DOS:  cpu time    0.0002: real time    0.0002
    CHARGE:  cpu time    0.0178: real time    0.0181
    MIXING:  cpu time    0.0055: real time    0.0056
    --------------------------------------------
      LOOP:  cpu time    0.3398: real time    0.3439

 eigenvalue-minimisations  :    64
 total energy-change (2. order) :-0.1988858E-03  (-0.4420493E-05)
 number of electron       8.0000000 magnetization 
 augmentation part        0.1806041 magnetization 

 Broyden mixing:
  rms(total) = 0.22963E-02    rms(broyden)= 0.22960E-02
  rms(prec ) = 0.30428E-02
  weight for this iteration     100.00

 eigenvalues of (default mixing * dielectric matrix)
  average eigenvalue GAMMA=   2.5506
  7.5937  4.7654  3.0409  2.5999  2.2412  1.2309  1.2309  0.9929  0.9053  0.9053

 Free energy of the ion-electron system (eV)
  ---------------------------------------------------
  alpha Z        PSCENC =         0.23239983
  Ewald energy   TEWEN  =       126.56988376
  -Hartree energ DENC   =      -282.79922640
  -exchange      EXHF   =         0.00000000
  -V(xc)+E(xc)   XCENC  =        24.56156225
  PAW double counting   =       444.02715791     -444.80162737
  entropy T*S    EENTRO =        -0.00000000
  eigenvalues    EBANDS =       -88.84096263
  atomic energy  EATOM  =       197.04175453
  Solvation  Ediel_sol  =         0.00000000
  ---------------------------------------------------
  free energy    TOTEN  =       -24.00905811 eV

  energy without entropy =      -24.00905811  energy(sigma->0) =      -24.00905811


--------------------------------------------------------------------------------------------------------




--------------------------------------- Iteration      1(  16)  ---------------------------------------


    POTLOK:  cpu time    0.1230: real time    0.1248
    SETDIJ:  cpu time    0.0016: real time    0.0016
    EDDIAG:  cpu time    0.0372: real time    0.0380
  RMM-DIIS:  cpu time    0.1504: real time    0.1530
    ORTHCH:  cpu time    0.0014: real time    0.0014
       DOS:  cpu time    0.0002: real time    0.0002
    CHARGE:  cpu time    0.0176: real time    0.0179
    MIXING:  cpu time    0.0057: real time    0.0058
    --------------------------------------------
      LOOP:  cpu time    0.3373: real time    0.3429

 eigenvalue-minimisations  :    64
 total energy-change (2. order) :-0.2222301E-03  (-0.1918228E-04)
 number of electron       8.0000000 magnetization 
 augmentation part        0.1806835 magnetization 

 Broyden mixing:
  rms(total) = 0.99948E-03    rms(broyden)= 0.99885E-03
  rms(prec ) = 0.13234E-02
  weight for this iteration     100.00

 eigenvalues of (default mixing * dielectric matrix)
  average eigenvalue GAMMA=   2.4925
  7.8376  4.8243  3.4843  2.4481  2.2883  1.2583  1.2583  0.9164  0.9602  1.0708
  1.0708

 Free energy of the ion-electron system (eV)
  ---------------------------------------------------
  alpha Z        PSCENC =         0.23239983
  Ewald energy   TEWEN  =       126.56988376
  -Hartree energ DENC   =      -282.73820179
  -exchange      EXHF   =         0.00000000
  -V(xc)+E(xc)   XCENC  =        24.55951404
  PAW double counting   =       444.06980193     -444.84345195
  entropy T*S    EENTRO =        -0.00000000
  eigenvalues    EBANDS =       -88.90098068
  atomic energy  EATOM  =       197.04175453
  Solvation  Ediel_sol  =         0.00000000
  ---------------------------------------------------
  free energy    TOTEN  =       -24.00928034 eV

  energy without entropy =      -24.00928034  energy(sigma->0) =      -24.00928034


--------------------------------------------------------------------------------------------------------




--------------------------------------- Iteration      1(  17)  ---------------------------------------


    POTLOK:  cpu time    0.1209: real time    0.1239
    SETDIJ:  cpu time    0.0017: real time    0.0017
    EDDIAG:  cpu time    0.0378: real time    0.0384
  RMM-DIIS:  cpu time    0.1504: real time    0.1526
    ORTHCH:  cpu time    0.0015: real time    0.0016
       DOS:  cpu time    0.0002: real time    0.0002
    CHARGE:  cpu time    0.0178: real time    0.0181
    MIXING:  cpu time    0.0057: real time    0.0057
    --------------------------------------------
      LOOP:  cpu time    0.3360: real time    0.3421

 eigenvalue-minimisations  :    64
 total energy-change (2. order) :-0.2932104E-04  (-0.1977360E-05)
 number of electron       8.0000000 magnetization 
 augmentation part        0.1806585 magnetization 

 Broyden mixing:
  rms(total) = 0.13344E-03    rms(broyden)= 0.13341E-03
  rms(prec ) = 0.22730E-03
  weight for this iteration     100.00

 eigenvalues of (default mixing * dielectric matrix)
  average eigenvalue GAMMA=   2.5883
  8.5099  5.2856  3.9198  2.6120  2.4483  1.6521  1.3249  1.3249  1.1500  1.0018
  0.9297  0.9005

 Free energy of the ion-electron system (eV)
  ---------------------------------------------------
  alpha Z        PSCENC =         0.23239983
  Ewald energy   TEWEN  =       126.56988376
  -Hartree energ DENC   =      -282.77772785
  -exchange      EXHF   =         0.00000000
  -V(xc)+E(xc)   XCENC  =        24.56121674
  PAW double counting   =       444.05020966     -444.82420201
  entropy T*S    EENTRO =        -0.00000000
  eigenvalues    EBANDS =       -88.86284432
  atomic energy  EATOM  =       197.04175453
  Solvation  Ediel_sol  =         0.00000000
  ---------------------------------------------------
  free energy    TOTEN  =       -24.00930966 eV

  energy without entropy =      -24.00930966  energy(sigma->0) =      -24.00930966


--------------------------------------------------------------------------------------------------------




--------------------------------------- Iteration      1(  18)  ---------------------------------------


    POTLOK:  cpu time    0.1253: real time    0.1270
    SETDIJ:  cpu time    0.0018: real time    0.0019
    EDDIAG:  cpu time    0.0380: real time    0.0385
  RMM-DIIS:  cpu time    0.1218: real time    0.1235
    ORTHCH:  cpu time    0.0014: real time    0.0014
       DOS:  cpu time    0.0002: real time    0.0002
    CHARGE:  cpu time    0.0176: real time    0.0179
    MIXING:  cpu time    0.0068: real time    0.0068
    --------------------------------------------
      LOOP:  cpu time    0.3129: real time    0.3172

 eigenvalue-minimisations  :    48
 total energy-change (2. order) :-0.1613862E-04  (-0.9737109E-07)
 number of electron       8.0000000 magnetization 
 augmentation part        0.1806550 magnetization 

 Broyden mixing:
  rms(total) = 0.92641E-04    rms(broyden)= 0.92611E-04
  rms(prec ) = 0.13909E-03
  weight for this iteration     100.00

 eigenvalues of (default mixing * dielectric matrix)
  average eigenvalue GAMMA=   2.5402
  8.5629  5.4131  3.7727  2.8110  2.4118  2.1156  1.2752  1.2752  0.8955  0.9889
  0.9889  1.3029  1.2089

 Free energy of the ion-electron system (eV)
  ---------------------------------------------------
  alpha Z        PSCENC =         0.23239983
  Ewald energy   TEWEN  =       126.56988376
  -Hartree energ DENC   =      -282.77039418
  -exchange      EXHF   =         0.00000000
  -V(xc)+E(xc)   XCENC  =        24.56066327
  PAW double counting   =       444.00708404     -444.78106122
  entropy T*S    EENTRO =        -0.00000000
  eigenvalues    EBANDS =       -88.86965583
  atomic energy  EATOM  =       197.04175453
  Solvation  Ediel_sol  =         0.00000000
  ---------------------------------------------------
  free energy    TOTEN  =       -24.00932580 eV

  energy without entropy =      -24.00932580  energy(sigma->0) =      -24.00932580


--------------------------------------------------------------------------------------------------------




--------------------------------------- Iteration      1(  19)  ---------------------------------------


    POTLOK:  cpu time    0.1256: real time    0.1284
    SETDIJ:  cpu time    0.0017: real time    0.0017
    EDDIAG:  cpu time    0.0371: real time    0.0377
  RMM-DIIS:  cpu time    0.1211: real time    0.1228
    ORTHCH:  cpu time    0.0014: real time    0.0014
       DOS:  cpu time    0.0002: real time    0.0002
    CHARGE:  cpu time    0.0177: real time    0.0180
    MIXING:  cpu time    0.0073: real time    0.0078
    --------------------------------------------
      LOOP:  cpu time    0.3122: real time    0.3180

 eigenvalue-minimisations  :    48
 total energy-change (2. order) :-0.3003051E-05  (-0.4319880E-07)
 number of electron       8.0000000 magnetization 
 augmentation part        0.1806572 magnetization 

 Broyden mixing:
  rms(total) = 0.45704E-04    rms(broyden)= 0.45700E-04
  rms(prec ) = 0.65015E-04
  weight for this iteration     100.00

 eigenvalues of (default mixing * dielectric matrix)
  average eigenvalue GAMMA=   2.5634
  8.6506  5.6274  3.6923  3.6923  2.4625  2.4625  1.7948  1.2913  1.2913  1.1123
  0.8998  0.9716  0.9696  0.9696

 Free energy of the ion-electron system (eV)
  ---------------------------------------------------
  alpha Z        PSCENC =         0.23239983
  Ewald energy   TEWEN  =       126.56988376
  -Hartree energ DENC   =      -282.76393978
  -exchange      EXHF   =         0.00000000
  -V(xc)+E(xc)   XCENC  =        24.56028777
  PAW double counting   =       443.98911125     -444.76303274
  entropy T*S    EENTRO =        -0.00000000
  eigenvalues    EBANDS =       -88.87579342
  atomic energy  EATOM  =       197.04175453
  Solvation  Ediel_sol  =         0.00000000
  ---------------------------------------------------
  free energy    TOTEN  =       -24.00932880 eV

  energy without entropy =      -24.00932880  energy(sigma->0) =      -24.00932880


--------------------------------------------------------------------------------------------------------




--------------------------------------- Iteration      1(  20)  ---------------------------------------


    POTLOK:  cpu time    0.1296: real time    0.1313
    SETDIJ:  cpu time    0.0016: real time    0.0016
    EDDIAG:  cpu time    0.0380: real time    0.0386
  RMM-DIIS:  cpu time    0.1163: real time    0.1179
    ORTHCH:  cpu time    0.0015: real time    0.0015
       DOS:  cpu time    0.0002: real time    0.0002
    CHARGE:  cpu time    0.0182: real time    0.0186
    MIXING:  cpu time    0.0065: real time    0.0065
    --------------------------------------------
      LOOP:  cpu time    0.3119: real time    0.3163

 eigenvalue-minimisations  :    37
 total energy-change (2. order) :-0.1728442E-05  (-0.2540039E-08)
 number of electron       8.0000000 magnetization 
 augmentation part        0.1806574 magnetization 

 Broyden mixing:
  rms(total) = 0.22789E-04    rms(broyden)= 0.22788E-04
  rms(prec ) = 0.35348E-04
  weight for this iteration     100.00

 eigenvalues of (default mixing * dielectric matrix)
  average eigenvalue GAMMA=   2.5119
  8.6812  5.5914  4.2287  3.4089  2.5868  2.4060  1.9531  1.2771  1.2771  1.2318
  1.0857  1.0857  0.8955  1.0141  0.9559

 Free energy of the ion-electron system (eV)
  ---------------------------------------------------
  alpha Z        PSCENC =         0.23239983
  Ewald energy   TEWEN  =       126.56988376
  -Hartree energ DENC   =      -282.76460866
  -exchange      EXHF   =         0.00000000
  -V(xc)+E(xc)   XCENC  =        24.56029625
  PAW double counting   =       443.98342451     -444.75735442
  entropy T*S    EENTRO =        -0.00000000
  eigenvalues    EBANDS =       -88.87512633
  atomic energy  EATOM  =       197.04175453
  Solvation  Ediel_sol  =         0.00000000
  ---------------------------------------------------
  free energy    TOTEN  =       -24.00933053 eV

  energy without entropy =      -24.00933053  energy(sigma->0) =      -24.00933053


--------------------------------------------------------------------------------------------------------




--------------------------------------- Iteration      1(  21)  ---------------------------------------


    POTLOK:  cpu time    0.1354: real time    0.1376
    SETDIJ:  cpu time    0.0019: real time    0.0020
    EDDIAG:  cpu time    0.0385: real time    0.0392
  RMM-DIIS:  cpu time    0.1207: real time    0.1224
    ORTHCH:  cpu time    0.0016: real time    0.0017
       DOS:  cpu time    0.0002: real time    0.0002
    --------------------------------------------
      LOOP:  cpu time    0.2983: real time    0.3031

 eigenvalue-minimisations  :    39
 total energy-change (2. order) :-0.3929661E-06  (-0.5251490E-08)
 number of electron       8.0000000 magnetization 
 augmentation part        0.1806574 magnetization 

 Free energy of the ion-electron system (eV)
  ---------------------------------------------------
  alpha Z        PSCENC =         0.23239983
  Ewald energy   TEWEN  =       126.56988376
  -Hartree energ DENC   =      -282.76651783
  -exchange      EXHF   =         0.00000000
  -V(xc)+E(xc)   XCENC  =        24.56040736
  PAW double counting   =       443.98829837     -444.76224153
  entropy T*S    EENTRO =        -0.00000000
  eigenvalues    EBANDS =       -88.87331540
  atomic energy  EATOM  =       197.04175453
  Solvation  Ediel_sol  =         0.00000000
  ---------------------------------------------------
  free energy    TOTEN  =       -24.00933093 eV

  energy without entropy =      -24.00933093  energy(sigma->0) =      -24.00933093


--------------------------------------------------------------------------------------------------------




 average (electrostatic) potential at core
  the test charge radii are     0.5201  0.6991
  (the norm of the test charge is              1.0000)
       1 -41.4323       2 -41.3738       3 -41.3956       4 -41.3818       5 -58.0694
 
 
 
 E-fermi :  -8.1812     XC(G=0):  -0.6827     alpha+bet : -0.2021


 k-point     1 :       0.2500    0.2500    0.2500
  band No.  band energies     occupation 
      1     -16.7598      2.00000
      2      -9.2919      2.00000
      3      -9.2323      2.00000
      4      -9.1525      2.00000
      5      -0.3445      0.00000
      6       0.5363      0.00000
      7       0.6509      0.00000
      8       0.6834      0.00000

 k-point     2 :      -0.2500    0.2500    0.2500
  band No.  band energies     occupation 
      1     -16.7599      2.00000
      2      -9.2919      2.00000
      3      -9.2323      2.00000
      4      -9.1526      2.00000
      5      -0.3431      0.00000
      6       0.5298      0.00000
      7       0.6440      0.00000
      8       0.6812      0.00000

 k-point     3 :       0.2500   -0.2500    0.2500
  band No.  band energies     occupation 
      1     -16.7599      2.00000
      2      -9.2919      2.00000
      3      -9.2323      2.00000
      4      -9.1526      2.00000
      5      -0.3415      0.00000
      6       0.5275      0.00000
      7       0.6436      0.00000
      8       0.6736      0.00000

 k-point     4 :      -0.2500   -0.2500    0.2500
  band No.  band energies     occupation 
      1     -16.7599      2.00000
      2      -9.2919      2.00000
      3      -9.2323      2.00000
      4      -9.1526      2.00000
      5      -0.3406      0.00000
      6       0.5296      0.00000
      7       0.6423      0.00000
      8       0.6686      0.00000


--------------------------------------------------------------------------------------------------------


 soft charge-density along one line, spin component           1
         0         1         2         3         4         5         6         7         8         9
 total charge-density along one line
 
 pseudopotential strength for first ion, spin component:           1
 -2.341  -4.033  -0.001  -0.001   0.001
 -4.033  -6.863  -0.003  -0.004   0.002
 -0.001  -0.003  -0.338   0.002  -0.001
 -0.001  -0.004   0.002  -0.337  -0.001
  0.001   0.002  -0.001  -0.001  -0.339
 total augmentation occupancy for first ion, spin component:           1
  3.497  -0.631   0.232   0.319  -0.132
 -0.631   0.128  -0.043  -0.059   0.025
  0.232  -0.043   0.021   0.018  -0.007
  0.319  -0.059   0.018   0.033  -0.010
 -0.132   0.025  -0.007  -0.010   0.013


------------------------ aborting loop because EDIFF is reached ----------------------------------------


    CHARGE:  cpu time    0.0180: real time    0.0183
    FORLOC:  cpu time    0.0113: real time    0.0114
    FORNL :  cpu time    0.0181: real time    0.0183
    STRESS:  cpu time    0.1446: real time    0.1475
    FORCOR:  cpu time    0.1302: real time    0.1345
    FORHAR:  cpu time    0.0399: real time    0.0420
    MIXING:  cpu time    0.0067: real time    0.0071
    OFIELD:  cpu time    0.0000: real time    0.0000

  FORCE on cell =-STRESS in cart. coord.  units (eV):
  Direction    XX          YY          ZZ          XY          YZ          ZX
  --------------------------------------------------------------------------------------
  Alpha Z     0.23240     0.23240     0.23240
  Ewald      41.51621    42.31317    42.74048     0.27466     1.53784     0.65003
  Hartree    93.34011    94.82983    94.59626     0.09825     0.52466     0.29931
  E(xc)     -27.01052   -27.01917   -27.01425     0.00154     0.00620     0.00381
  Local    -193.80158  -196.20575  -196.23559    -0.33210    -1.79862    -0.88450
  n-local   -15.46480   -15.49592   -15.49535    -0.00215     0.00293     0.00319
  augment     0.12405     0.12437     0.12335    -0.00027    -0.00185    -0.00033
  Kinetic    99.73735   100.20038    99.96254    -0.06120    -0.32424    -0.17261
  Fock        0.00000     0.00000     0.00000     0.00000     0.00000     0.00000
  -------------------------------------------------------------------------------------
  Total      -1.32677    -1.02068    -1.09016    -0.02127    -0.05308    -0.10109
  in kB      -2.03929    -1.56882    -1.67560    -0.03270    -0.08158    -0.15538
  external pressure =       -1.76 kB  Pullay stress =        0.00 kB

  kinetic pressure (ideal gas correction) =      0.00 kB
  total pressure  =     -1.76 kB
  Total+kin.    -2.039      -1.569      -1.676      -0.033      -0.082      -0.155

 VOLUME and BASIS-vectors are now :
 -----------------------------------------------------------------------------
  energy-cutoff  :      400.00
  volume of cell :     1042.39
      direct lattice vectors                 reciprocal lattice vectors
    10.233292541  0.000000000  0.000000000     0.097720259 -0.000152681 -0.000683271
     0.015738843 10.073287938  0.000000000     0.000000000  0.099272453 -0.001554576
     0.070952592  0.158352913 10.112132839     0.000000000  0.000000000  0.098891106

  length of vectors
    10.233292541 10.073300234 10.113621531     0.097722767  0.099284624  0.098891106


 FORCES acting on ions
    electron-ion (+dipol)            ewald-force                    non-local-force                 convergence-correction
 -----------------------------------------------------------------------------------------------
   -.165E+02 0.290E+02 0.399E+02   0.180E+02 -.317E+02 -.437E+02   -.169E+01 0.297E+01 0.408E+01   -.168E-04 0.322E-04 0.438E-04
   0.512E+02 -.621E+01 0.308E+01   -.557E+02 0.677E+01 -.334E+01   0.516E+01 -.623E+00 0.304E+00   0.426E-04 -.723E-05 0.368E-05
   -.236E+02 -.462E+02 0.721E+00   0.257E+02 0.504E+02 -.859E+00   -.241E+01 -.469E+01 0.421E-01   -.267E-04 -.598E-04 0.331E-05
   -.121E+02 0.233E+02 -.447E+02   0.131E+02 -.255E+02 0.487E+02   -.124E+01 0.234E+01 -.454E+01   -.151E-04 0.327E-04 -.577E-04
   0.109E+01 0.109E-01 0.864E+00   -.121E+01 0.971E-02 -.876E+00   0.413E-01 0.513E-01 0.212E+00   -.620E-06 0.820E-06 0.267E-04
 -----------------------------------------------------------------------------------------------
   0.134E+00 -.568E-01 -.103E+00   -.355E-14 -.104E-16 0.000E+00   -.134E+00 0.565E-01 0.103E+00   -.166E-04 -.125E-05 0.198E-04
 
 
 POSITION                                       TOTAL-FORCE (eV/Angst)
 -----------------------------------------------------------------------------------
      5.53858      4.15639      3.64696        -0.125475      0.247980      0.320726
      4.07784      4.90978      4.43275         0.657692     -0.056252      0.041339
      5.69271      5.76626      4.48442        -0.279470     -0.418458     -0.095189
      5.44590      4.27455      5.45890        -0.177016      0.154575     -0.467443
      5.18579      4.77523      4.49809        -0.075839      0.071899      0.200746
 -----------------------------------------------------------------------------------
    total drift:                               -0.000108     -0.000255      0.000179


--------------------------------------------------------------------------------------------------------



  FREE ENERGIE OF THE ION-ELECTRON SYSTEM (eV)
  ---------------------------------------------------
  free  energy   TOTEN  =       -24.00933093 eV

  energy  without entropy=      -24.00933093  energy(sigma->0) =      -24.00933093
 


--------------------------------------------------------------------------------------------------------


    POTLOK:  cpu time    0.1312: real time    0.1387


--------------------------------------------------------------------------------------------------------


 stress matrix after NEB project (eV)
     -1.32677     -0.02127     -0.10109
     -0.02127     -1.02068     -0.05308
     -0.10109     -0.05308     -1.09016
  FORCES: max atom, RMS     0.661387    0.490868
  FORCE total and by dimension    1.097615    0.657692
  Stress total and by dimension    2.004381    1.326774
           RANDOM_SEED =         581384671                0                0
           RANDOM_SEED =         581384671               30                0
   IONSTEP:  cpu time    0.0029: real time    0.0056

  ENERGY OF THE ELECTRON-ION-THERMOSTAT SYSTEM (eV)
  ---------------------------------------------------
% ion-electron   TOTEN  =       -24.009331  see above
  kinetic energy EKIN   =         0.000348
  kin. lattice  EKIN_LAT=         0.000000  (temperature    0.67 K)
  nose potential ES     =         0.000000
  nose kinetic   EPS    =         0.000000
  ---------------------------------------------------
  total energy   ETOTAL =       -24.008983 eV

  maximum distance moved by ions :      0.16E-03

    WAVPRE:  cpu time    0.0388: real time    0.0395
    FEWALD:  cpu time    0.0003: real time    0.0003
    ORTHCH:  cpu time    0.0082: real time    0.0083
     LOOP+:  cpu time    7.1472: real time    7.3054


--------------------------------------- Iteration      2(   1)  ---------------------------------------


    POTLOK:  cpu time    0.1327: real time    0.1346
    SETDIJ:  cpu time    0.0016: real time    0.0016
     EDDAV:  cpu time    0.1497: real time    0.1515
       DOS:  cpu time    0.0002: real time    0.0002
    CHARGE:  cpu time    0.0176: real time    0.0178
    MIXING:  cpu time    0.0057: real time    0.0057
    --------------------------------------------
      LOOP:  cpu time    0.3076: real time    0.3115

 eigenvalue-minimisations  :    64
 total energy-change (2. order) :-0.2722780E-02  (-0.3178374E-03)
 number of electron       8.0000000 magnetization 
 augmentation part        0.1810726 magnetization 

 Broyden mixing:
  rms(total) = 0.29804E-02    rms(broyden)= 0.29788E-02
  rms(prec ) = 0.39699E-02
  weight for this iteration     100.00

 Free energy of the ion-electron system (eV)
  ---------------------------------------------------
  alpha Z        PSCENC =         0.23239983
  Ewald energy   TEWEN  =       126.85593573
  -Hartree energ DENC   =      -282.93589551
  -exchange      EXHF   =         0.00000000
  -V(xc)+E(xc)   XCENC  =        24.56895330
  PAW double counting   =       443.99020671     -444.76415202
  entropy T*S    EENTRO =        -0.00000000
  eigenvalues    EBANDS =       -89.00125588
  atomic energy  EATOM  =       197.04175453
  Solvation  Ediel_sol  =         0.00000000
  ---------------------------------------------------
  free energy    TOTEN  =       -24.01205331 eV

  energy without entropy =      -24.01205331  energy(sigma->0) =      -24.01205331


--------------------------------------------------------------------------------------------------------




--------------------------------------- Iteration      2(   2)  ---------------------------------------


    POTLOK:  cpu time    0.1366: real time    0.1382
    SETDIJ:  cpu time    0.0017: real time    0.0017
    EDDIAG:  cpu time    0.0400: real time    0.0401
  RMM-DIIS:  cpu time    0.1550: real time    0.1552
    ORTHCH:  cpu time    0.0015: real time    0.0015
       DOS:  cpu time    0.0002: real time    0.0003
    CHARGE:  cpu time    0.0181: real time    0.0181
    MIXING:  cpu time    0.0043: real time    0.0043
    --------------------------------------------
      LOOP:  cpu time    0.3574: real time    0.3592

 eigenvalue-minimisations  :    64
 total energy-change (2. order) : 0.2883898E-04  (-0.6183771E-05)
 number of electron       8.0000000 magnetization 
 augmentation part        0.1810461 magnetization 

 Broyden mixing:
  rms(total) = 0.13451E-02    rms(broyden)= 0.13450E-02
  rms(prec ) = 0.17082E-02
  weight for this iteration     100.00

 eigenvalues of (default mixing * dielectric matrix)
  average eigenvalue GAMMA=   1.7256
  1.7256

 Free energy of the ion-electron system (eV)
  ---------------------------------------------------
  alpha Z        PSCENC =         0.23239983
  Ewald energy   TEWEN  =       126.85593573
  -Hartree energ DENC   =      -282.99105222
  -exchange      EXHF   =         0.00000000
  -V(xc)+E(xc)   XCENC  =        24.57197579
  PAW double counting   =       444.66695283     -445.44150795
  entropy T*S    EENTRO =        -0.00000000
  eigenvalues    EBANDS =       -88.94848301
  atomic energy  EATOM  =       197.04175453
  Solvation  Ediel_sol  =         0.00000000
  ---------------------------------------------------
  free energy    TOTEN  =       -24.01202447 eV

  energy without entropy =      -24.01202447  energy(sigma->0) =      -24.01202447


--------------------------------------------------------------------------------------------------------




--------------------------------------- Iteration      2(   3)  ---------------------------------------


    POTLOK:  cpu time    0.1347: real time    0.1365
    SETDIJ:  cpu time    0.0017: real time    0.0017
    EDDIAG:  cpu time    0.0385: real time    0.0385
  RMM-DIIS:  cpu time    0.1501: real time    0.1503
    ORTHCH:  cpu time    0.0015: real time    0.0016
       DOS:  cpu time    0.0002: real time    0.0002
    CHARGE:  cpu time    0.0180: real time    0.0180
    MIXING:  cpu time    0.0044: real time    0.0044
    --------------------------------------------
      LOOP:  cpu time    0.3491: real time    0.3511

 eigenvalue-minimisations  :    64
 total energy-change (2. order) : 0.8933078E-06  (-0.5674544E-05)
 number of electron       8.0000000 magnetization 
 augmentation part        0.1809844 magnetization 

 Broyden mixing:
  rms(total) = 0.65222E-03    rms(broyden)= 0.65177E-03
  rms(prec ) = 0.77744E-03
  weight for this iteration     100.00

 eigenvalues of (default mixing * dielectric matrix)
  average eigenvalue GAMMA=   0.9974
  1.6594  0.3354

 Free energy of the ion-electron system (eV)
  ---------------------------------------------------
  alpha Z        PSCENC =         0.23239983
  Ewald energy   TEWEN  =       126.85593573
  -Hartree energ DENC   =      -283.02848213
  -exchange      EXHF   =         0.00000000
  -V(xc)+E(xc)   XCENC  =        24.57405564
  PAW double counting   =       445.30397128     -446.07900955
  entropy T*S    EENTRO =        -0.00000000
  eigenvalues    EBANDS =       -88.91264892
  atomic energy  EATOM  =       197.04175453
  Solvation  Ediel_sol  =         0.00000000
  ---------------------------------------------------
  free energy    TOTEN  =       -24.01202358 eV

  energy without entropy =      -24.01202358  energy(sigma->0) =      -24.01202358


--------------------------------------------------------------------------------------------------------




--------------------------------------- Iteration      2(   4)  ---------------------------------------


    POTLOK:  cpu time    0.1350: real time    0.1353
    SETDIJ:  cpu time    0.0016: real time    0.0016
    EDDIAG:  cpu time    0.0389: real time    0.0390
  RMM-DIIS:  cpu time    0.1243: real time    0.1245
    ORTHCH:  cpu time    0.0016: real time    0.0016
       DOS:  cpu time    0.0002: real time    0.0002
    --------------------------------------------
      LOOP:  cpu time    0.3015: real time    0.3021

 eigenvalue-minimisations  :    48
 total energy-change (2. order) : 0.3264128E-06  (-0.1043880E-06)
 number of electron       8.0000000 magnetization 
 augmentation part        0.1809844 magnetization 

 Free energy of the ion-electron system (eV)
  ---------------------------------------------------
  alpha Z        PSCENC =         0.23239983
  Ewald energy   TEWEN  =       126.85593573
  -Hartree energ DENC   =      -283.02542572
  -exchange      EXHF   =         0.00000000
  -V(xc)+E(xc)   XCENC  =        24.57392283
  PAW double counting   =       445.31684743     -446.09184580
  entropy T*S    EENTRO =        -0.00000000
  eigenvalues    EBANDS =       -88.91561209
  atomic energy  EATOM  =       197.04175453
  Solvation  Ediel_sol  =         0.00000000
  ---------------------------------------------------
  free energy    TOTEN  =       -24.01202325 eV

  energy without entropy =      -24.01202325  energy(sigma->0) =      -24.01202325


--------------------------------------------------------------------------------------------------------




 average (electrostatic) potential at core
  the test charge radii are     0.5201  0.6991
  (the norm of the test charge is              1.0000)
       1 -41.4378       2 -41.3834       3 -41.4029       4 -41.3895       5 -58.0584
 
 
 
 E-fermi :  -8.1920     XC(G=0):  -0.7015     alpha+bet : -0.2021


 k-point     1 :       0.2500    0.2500    0.2500
  band No.  band energies     occupation 
      1     -16.7683      2.00000
      2      -9.2945      2.00000
      3      -9.2371      2.00000
      4      -9.1577      2.00000
      5      -0.3496      0.00000
      6       0.5211      0.00000
      7       0.6381      0.00000
      8       0.6700      0.00000

 k-point     2 :      -0.2500    0.2500    0.2500
  band No.  band energies     occupation 
      1     -16.7684      2.00000
      2      -9.2946      2.00000
      3      -9.2370      2.00000
      4      -9.1578      2.00000
      5      -0.3482      0.00000
      6       0.5147      0.00000
      7       0.6315      0.00000
      8       0.6675      0.00000

 k-point     3 :       0.2500   -0.2500    0.2500
  band No.  band energies     occupation 
      1     -16.7684      2.00000
      2      -9.2946      2.00000
      3      -9.2371      2.00000
      4      -9.1578      2.00000
      5      -0.3465      0.00000
      6       0.5117      0.00000
      7       0.6319      0.00000
      8       0.6594      0.00000

 k-point     4 :      -0.2500   -0.2500    0.2500
  band No.  band energies     occupation 
      1     -16.7684      2.00000
      2      -9.2946      2.00000
      3      -9.2371      2.00000
      4      -9.1578      2.00000
      5      -0.3456      0.00000
      6       0.5137      0.00000
      7       0.6301      0.00000
      8       0.6550      0.00000


--------------------------------------------------------------------------------------------------------


 soft charge-density along one line, spin component           1
         0         1         2         3         4         5         6         7         8         9
 total charge-density along one line
 
 pseudopotential strength for first ion, spin component:           1
 -2.341  -4.033  -0.001  -0.001   0.001
 -4.033  -6.863  -0.003  -0.004   0.002
 -0.001  -0.003  -0.338   0.002  -0.001
 -0.001  -0.004   0.002  -0.337  -0.001
  0.001   0.002  -0.001  -0.001  -0.339
 total augmentation occupancy for first ion, spin component:           1
  3.501  -0.632   0.233   0.320  -0.133
 -0.632   0.128  -0.043  -0.059   0.025
  0.233  -0.043   0.021   0.018  -0.007
  0.320  -0.059   0.018   0.033  -0.010
 -0.133   0.025  -0.007  -0.010   0.013


------------------------ aborting loop because EDIFF is reached ----------------------------------------


    CHARGE:  cpu time    0.0185: real time    0.0185
    FORLOC:  cpu time    0.0112: real time    0.0112
    FORNL :  cpu time    0.0180: real time    0.0180
    STRESS:  cpu time    0.1487: real time    0.1489
    FORCOR:  cpu time    0.1325: real time    0.1326
    FORHAR:  cpu time    0.0428: real time    0.0428
    MIXING:  cpu time    0.0059: real time    0.0059
    OFIELD:  cpu time    0.0000: real time    0.0000

  FORCE on cell =-STRESS in cart. coord.  units (eV):
  Direction    XX          YY          ZZ          XY          YZ          ZX
  --------------------------------------------------------------------------------------
  Alpha Z     0.23240     0.23240     0.23240
  Ewald      41.61594    42.41554    42.82444     0.26844     1.51304     0.64146
  Hartree    93.41324    94.91531    94.67711     0.09647     0.52045     0.29425
  E(xc)     -27.02517   -27.03359   -27.02876     0.00150     0.00610     0.00371
  Local    -193.95424  -196.38070  -196.39084    -0.32509    -1.77527    -0.87050
  n-local   -15.49545   -15.52493   -15.52424    -0.00211     0.00320     0.00287
  augment     0.12347     0.12387     0.12287    -0.00026    -0.00181    -0.00034
  Kinetic    99.82359   100.27580   100.04198    -0.05976    -0.31981    -0.16807
  Fock        0.00000     0.00000     0.00000     0.00000     0.00000     0.00000
[...]
      5.67623      5.74398      4.47676         0.151656      0.348302     -0.055471
      5.43491      4.28110      5.43286         0.070510     -0.215702      0.329411
      5.18564      4.77559      4.49926         0.185060     -0.036860      0.005165
 -----------------------------------------------------------------------------------
    total drift:                               -0.000056     -0.000004      0.000115


--------------------------------------------------------------------------------------------------------



  FREE ENERGIE OF THE ION-ELECTRON SYSTEM (eV)
  ---------------------------------------------------
  free  energy   TOTEN  =       -24.01970138 eV

  energy  without entropy=      -24.01970138  energy(sigma->0) =      -24.01970138
 
 d Force =-0.4923552E-02[-0.593E-02,-0.391E-02]  d Energy =-0.4917586E-02-0.597E-05
 d Force =-0.8863406E+00[-0.889E+00,-0.883E+00]  d Ewald  =-0.8863358E+00-0.475E-05


--------------------------------------------------------------------------------------------------------


    POTLOK:  cpu time    0.1313: real time    0.1318


--------------------------------------------------------------------------------------------------------


 stress matrix after NEB project (eV)
      0.26950     -0.01211      0.01420
     -0.01211      0.15922     -0.07640
      0.01420     -0.07640      0.11978
  FORCES: max atom, RMS     0.510064    0.373333
  FORCE total and by dimension    0.834798    0.503949
  Stress total and by dimension    0.353130    0.269502
           RANDOM_SEED =         581384671               30                0
   IONSTEP:  cpu time    0.0001: real time    0.0001

  ENERGY OF THE ELECTRON-ION-THERMOSTAT SYSTEM (eV)
  ---------------------------------------------------
% ion-electron   TOTEN  =       -24.019701  see above
  kinetic energy EKIN   =         0.010501
  kin. lattice  EKIN_LAT=         0.000000  (temperature   20.31 K)
  nose potential ES     =         0.000000
  nose kinetic   EPS    =         0.000000
  ---------------------------------------------------
  total energy   ETOTAL =       -24.009201 eV

  maximum distance moved by ions :      0.34E-03

    WAVPRE:  cpu time    0.0456: real time    0.0461
    FEWALD:  cpu time    0.0003: real time    0.0003
    ORTHCH:  cpu time    0.0084: real time    0.0084
 Prediction of Wavefunctions ALPHA= 2.218 BETA=-1.256
     LOOP+:  cpu time    1.8168: real time    1.8224


--------------------------------------- Iteration     10(   1)  ---------------------------------------


    POTLOK:  cpu time    0.1294: real time    0.1301
    SETDIJ:  cpu time    0.0017: real time    0.0017
     EDDAV:  cpu time    0.1528: real time    0.1533
       DOS:  cpu time    0.0002: real time    0.0002
    CHARGE:  cpu time    0.0176: real time    0.0176
    MIXING:  cpu time    0.0041: real time    0.0041
    --------------------------------------------
      LOOP:  cpu time    0.3058: real time    0.3070

 eigenvalue-minimisations  :    64
 total energy-change (2. order) : 0.4906818E-02  (-0.3028841E-04)
 number of electron       8.0000003 magnetization 
 augmentation part        0.1893476 magnetization 

 Broyden mixing:
  rms(total) = 0.16011E-03    rms(broyden)= 0.15966E-03
  rms(prec ) = 0.19665E-03
  weight for this iteration     100.00

 Free energy of the ion-electron system (eV)
  ---------------------------------------------------
  alpha Z        PSCENC =         0.23239983
  Ewald energy   TEWEN  =       133.89549835
  -Hartree energ DENC   =      -289.21176565
  -exchange      EXHF   =         0.00000000
  -V(xc)+E(xc)   XCENC  =        24.90101870
  PAW double counting   =       487.97827896     -488.77795881
  entropy T*S    EENTRO =        -0.00000000
  eigenvalues    EBANDS =       -90.07402000
  atomic energy  EATOM  =       197.04175453
  Solvation  Ediel_sol  =         0.00000000
  ---------------------------------------------------
  free energy    TOTEN  =       -24.01479409 eV

  energy without entropy =      -24.01479409  energy(sigma->0) =      -24.01479409


--------------------------------------------------------------------------------------------------------




--------------------------------------- Iteration     10(   2)  ---------------------------------------


    POTLOK:  cpu time    0.1264: real time    0.1277
    SETDIJ:  cpu time    0.0017: real time    0.0017
    EDDIAG:  cpu time    0.0396: real time    0.0397
  RMM-DIIS:  cpu time    0.1489: real time    0.1493
    ORTHCH:  cpu time    0.0015: real time    0.0015
       DOS:  cpu time    0.0002: real time    0.0002
    CHARGE:  cpu time    0.0184: real time    0.0184
    MIXING:  cpu time    0.0043: real time    0.0043
    --------------------------------------------
      LOOP:  cpu time    0.3409: real time    0.3427

 eigenvalue-minimisations  :    57
 total energy-change (2. order) :-0.6183597E-06  (-0.3107918E-06)
 number of electron       8.0000003 magnetization 
 augmentation part        0.1893517 magnetization 

 Broyden mixing:
  rms(total) = 0.10572E-03    rms(broyden)= 0.10552E-03
  rms(prec ) = 0.13209E-03
  weight for this iteration     100.00

 eigenvalues of (default mixing * dielectric matrix)
  average eigenvalue GAMMA=   0.7595
  0.7595

 Free energy of the ion-electron system (eV)
  ---------------------------------------------------
  alpha Z        PSCENC =         0.23239983
  Ewald energy   TEWEN  =       133.89549835
  -Hartree energ DENC   =      -289.20991185
  -exchange      EXHF   =         0.00000000
  -V(xc)+E(xc)   XCENC  =        24.90093597
  PAW double counting   =       487.97784745     -488.77749006
  entropy T*S    EENTRO =        -0.00000000
  eigenvalues    EBANDS =       -90.07582893
  atomic energy  EATOM  =       197.04175453
  Solvation  Ediel_sol  =         0.00000000
  ---------------------------------------------------
  free energy    TOTEN  =       -24.01479471 eV

  energy without entropy =      -24.01479471  energy(sigma->0) =      -24.01479471


--------------------------------------------------------------------------------------------------------




--------------------------------------- Iteration     10(   3)  ---------------------------------------


    POTLOK:  cpu time    0.1273: real time    0.1276
    SETDIJ:  cpu time    0.0017: real time    0.0017
    EDDIAG:  cpu time    0.0383: real time    0.0384
  RMM-DIIS:  cpu time    0.1228: real time    0.1238
    ORTHCH:  cpu time    0.0019: real time    0.0019
       DOS:  cpu time    0.0002: real time    0.0002
    CHARGE:  cpu time    0.0183: real time    0.0183
    MIXING:  cpu time    0.0044: real time    0.0044
    --------------------------------------------
      LOOP:  cpu time    0.3149: real time    0.3163

 eigenvalue-minimisations  :    48
 total energy-change (2. order) :-0.2494086E-06  (-0.1274316E-07)
 number of electron       8.0000003 magnetization 
 augmentation part        0.1893527 magnetization 

 Broyden mixing:
  rms(total) = 0.70273E-04    rms(broyden)= 0.70245E-04
  rms(prec ) = 0.88501E-04
  weight for this iteration     100.00

 eigenvalues of (default mixing * dielectric matrix)
  average eigenvalue GAMMA=   1.4136
  1.4136  1.4136

 Free energy of the ion-electron system (eV)
  ---------------------------------------------------
  alpha Z        PSCENC =         0.23239983
  Ewald energy   TEWEN  =       133.89549835
  -Hartree energ DENC   =      -289.20905285
  -exchange      EXHF   =         0.00000000
  -V(xc)+E(xc)   XCENC  =        24.90091018
  PAW double counting   =       487.95829776     -488.75792737
  entropy T*S    EENTRO =        -0.00000000
  eigenvalues    EBANDS =       -90.07667539
  atomic energy  EATOM  =       197.04175453
  Solvation  Ediel_sol  =         0.00000000
  ---------------------------------------------------
  free energy    TOTEN  =       -24.01479496 eV

  energy without entropy =      -24.01479496  energy(sigma->0) =      -24.01479496


--------------------------------------------------------------------------------------------------------




--------------------------------------- Iteration     10(   4)  ---------------------------------------


    POTLOK:  cpu time    0.1275: real time    0.1277
    SETDIJ:  cpu time    0.0018: real time    0.0018
    EDDIAG:  cpu time    0.0385: real time    0.0385
  RMM-DIIS:  cpu time    0.1187: real time    0.1202
    ORTHCH:  cpu time    0.0014: real time    0.0014
       DOS:  cpu time    0.0002: real time    0.0002
    --------------------------------------------
      LOOP:  cpu time    0.2880: real time    0.2899

 eigenvalue-minimisations  :    47
 total energy-change (2. order) :-0.3972710E-06  (-0.7407563E-08)
 number of electron       8.0000003 magnetization 
 augmentation part        0.1893527 magnetization 

 Free energy of the ion-electron system (eV)
  ---------------------------------------------------
  alpha Z        PSCENC =         0.23239983
  Ewald energy   TEWEN  =       133.89549835
  -Hartree energ DENC   =      -289.20832418
  -exchange      EXHF   =         0.00000000
  -V(xc)+E(xc)   XCENC  =        24.90090092
  PAW double counting   =       487.92710857     -488.72672736
  entropy T*S    EENTRO =        -0.00000000
  eigenvalues    EBANDS =       -90.07740602
  atomic energy  EATOM  =       197.04175453
  Solvation  Ediel_sol  =         0.00000000
  ---------------------------------------------------
  free energy    TOTEN  =       -24.01479536 eV

  energy without entropy =      -24.01479536  energy(sigma->0) =      -24.01479536


--------------------------------------------------------------------------------------------------------




 average (electrostatic) potential at core
  the test charge radii are     0.5201  0.6991
  (the norm of the test charge is              1.0000)
       1 -41.5682       2 -41.6286       3 -41.5828       4 -41.5842       5 -57.8782
 
 
 
 E-fermi :  -8.3669     XC(G=0):  -0.6542     alpha+bet : -0.2021


 k-point     1 :       0.2500    0.2500    0.2500
  band No.  band energies     occupation 
      1     -16.9971      2.00000
      2      -9.3745      2.00000
      3      -9.3468      2.00000
      4      -9.3200      2.00000
      5      -0.2993      0.00000
      6       0.5748      0.00000
      7       0.6711      0.00000
      8       0.6969      0.00000

 k-point     2 :      -0.2500    0.2500    0.2500
  band No.  band energies     occupation 
      1     -16.9972      2.00000
      2      -9.3746      2.00000
      3      -9.3468      2.00000
      4      -9.3201      2.00000
      5      -0.2977      0.00000
      6       0.5666      0.00000
      7       0.6664      0.00000
      8       0.6948      0.00000

 k-point     3 :       0.2500   -0.2500    0.2500
  band No.  band energies     occupation 
      1     -16.9972      2.00000
      2      -9.3746      2.00000
      3      -9.3468      2.00000
      4      -9.3201      2.00000
      5      -0.2961      0.00000
      6       0.5647      0.00000
      7       0.6655      0.00000
      8       0.6878      0.00000

 k-point     4 :      -0.2500   -0.2500    0.2500
  band No.  band energies     occupation 
      1     -16.9972      2.00000
      2      -9.3746      2.00000
      3      -9.3468      2.00000
      4      -9.3201      2.00000
      5      -0.2951      0.00000
      6       0.5649      0.00000
      7       0.6636      0.00000
      8       0.6845      0.00000


--------------------------------------------------------------------------------------------------------


 soft charge-density along one line, spin component           1
         0         1         2         3         4         5         6         7         8         9
 total charge-density along one line
 
 pseudopotential strength for first ion, spin component:           1
 -2.341  -4.035  -0.001  -0.001   0.001
 -4.035  -6.867  -0.003  -0.004   0.002
 -0.001  -0.003  -0.337   0.002  -0.001
 -0.001  -0.004   0.002  -0.335  -0.001
  0.001   0.002  -0.001  -0.001  -0.338
 total augmentation occupancy for first ion, spin component:           1
  3.586  -0.643   0.246   0.340  -0.141
 -0.643   0.130  -0.045  -0.063   0.026
  0.246  -0.045   0.024   0.019  -0.008
  0.340  -0.063   0.019   0.036  -0.011
 -0.141   0.026  -0.008  -0.011   0.014


------------------------ aborting loop because EDIFF is reached ----------------------------------------


    CHARGE:  cpu time    0.0178: real time    0.0179
    FORLOC:  cpu time    0.0113: real time    0.0113
    FORNL :  cpu time    0.0183: real time    0.0183
    STRESS:  cpu time    0.1458: real time    0.1460
    FORCOR:  cpu time    0.1300: real time    0.1318
    FORHAR:  cpu time    0.0423: real time    0.0425
    MIXING:  cpu time    0.0049: real time    0.0049
    OFIELD:  cpu time    0.0000: real time    0.0000

  FORCE on cell =-STRESS in cart. coord.  units (eV):
  Direction    XX          YY          ZZ          XY          YZ          ZX
  --------------------------------------------------------------------------------------
  Alpha Z     0.23240     0.23240     0.23240
  Ewald      43.90381    45.16250    44.82917     0.01511     0.55639     0.23356
  Hartree    95.27772    97.18246    96.74764     0.02810     0.33251     0.11758
  E(xc)     -27.38228   -27.38356   -27.38240     0.00015     0.00227     0.00025
  Local    -197.58188  -200.99203  -200.20065    -0.05007    -0.84896    -0.31088
  n-local   -16.26860   -16.25311   -16.25087     0.00000     0.00796    -0.00468
  augment     0.10665     0.10941     0.10916     0.00008    -0.00015    -0.00046
  Kinetic   102.14497   102.21871   102.16102    -0.00307    -0.12396    -0.00617
  Fock        0.00000     0.00000     0.00000     0.00000     0.00000     0.00000
  -------------------------------------------------------------------------------------
  Total       0.43280     0.27679     0.24547    -0.00969    -0.07393     0.02920
  in kB       0.66522     0.42543     0.37730    -0.01490    -0.11363     0.04488
  external pressure =        0.49 kB  Pullay stress =        0.00 kB

  kinetic pressure (ideal gas correction) =      0.01 kB
  total pressure  =      0.50 kB
  Total+kin.     0.678       0.429       0.386      -0.013      -0.110       0.050

 VOLUME and BASIS-vectors are now :
 -----------------------------------------------------------------------------
  energy-cutoff  :      400.00
  volume of cell :     1042.39
      direct lattice vectors                 reciprocal lattice vectors
    10.233292541  0.000000000  0.000000000     0.097720259 -0.000152681 -0.000683271
     0.015738843 10.073287938  0.000000000     0.000000000  0.099272453 -0.001554576
     0.070952592  0.158352913 10.112132839     0.000000000  0.000000000  0.098891106

  length of vectors
    10.233292541 10.073300234 10.113621531     0.097722767  0.099284624  0.098891106


 FORCES acting on ions
    electron-ion (+dipol)            ewald-force                    non-local-force                 convergence-correction
 -----------------------------------------------------------------------------------------------
   -.171E+02 0.298E+02 0.412E+02   0.190E+02 -.332E+02 -.458E+02   -.180E+01 0.315E+01 0.434E+01   0.324E-04 -.247E-04 -.336E-04
   0.534E+02 -.658E+01 0.325E+01   -.598E+02 0.736E+01 -.364E+01   0.572E+01 -.703E+00 0.342E+00   -.187E-04 0.294E-05 0.238E-05
   -.242E+02 -.479E+02 0.125E+01   0.270E+02 0.534E+02 -.142E+01   -.257E+01 -.508E+01 0.121E+00   0.241E-04 0.233E-04 -.489E-05
   -.123E+02 0.246E+02 -.462E+02   0.137E+02 -.274E+02 0.515E+02   -.131E+01 0.260E+01 -.490E+01   0.193E-04 -.179E-04 0.286E-04
   -.512E-01 0.164E+00 0.573E+00   0.129E+00 -.198E+00 -.637E+00   0.130E+00 -.144E-01 0.431E-01   0.470E-04 0.619E-05 0.300E-04
 -----------------------------------------------------------------------------------------------
   -.168E+00 0.489E-01 0.511E-01   0.352E-14 0.000E+00 0.000E+00   0.168E+00 -.490E-01 -.510E-01   0.104E-03 -.102E-04 0.224E-04
 
 
 POSITION                                       TOTAL-FORCE (eV/Angst)
 -----------------------------------------------------------------------------------
      5.53119      4.17192      3.66619         0.118746     -0.208570     -0.299698
      4.11746      4.90718      4.43509        -0.626102      0.079575     -0.048707
      5.67416      5.74208      4.47502         0.199707      0.426969     -0.045059
      5.43335      4.28096      5.43015         0.099727     -0.249755      0.414746
      5.18570      4.77563      4.49947         0.207910     -0.048252     -0.021127
 -----------------------------------------------------------------------------------
    total drift:                               -0.000013     -0.000034      0.000155


--------------------------------------------------------------------------------------------------------



  FREE ENERGIE OF THE ION-ELECTRON SYSTEM (eV)
  ---------------------------------------------------
  free  energy   TOTEN  =       -24.01479536 eV

  energy  without entropy=      -24.01479536  energy(sigma->0) =      -24.01479536
 
 d Force =-0.4909209E-02[-0.549E-02,-0.433E-02]  d Energy =-0.4906024E-02-0.318E-05
 d Force =-0.6613779E+00[-0.663E+00,-0.660E+00]  d Ewald  =-0.6613763E+00-0.155E-05


--------------------------------------------------------------------------------------------------------


    POTLOK:  cpu time    0.1299: real time    0.1301


--------------------------------------------------------------------------------------------------------


 stress matrix after NEB project (eV)
      0.43280     -0.00969      0.02920
     -0.00969      0.27679     -0.07393
      0.02920     -0.07393      0.24547
  FORCES: max atom, RMS     0.633015    0.461017
  FORCE total and by dimension    1.030865    0.626102
  Stress total and by dimension    0.580521    0.432796
           RANDOM_SEED =         581384671               30                0
   IONSTEP:  cpu time    0.0002: real time    0.0002

  ENERGY OF THE ELECTRON-ION-THERMOSTAT SYSTEM (eV)
  ---------------------------------------------------
% ion-electron   TOTEN  =       -24.014795  see above
  kinetic energy EKIN   =         0.005699
  kin. lattice  EKIN_LAT=         0.000000  (temperature   11.02 K)
  nose potential ES     =         0.000000
  nose kinetic   EPS    =         0.000000
  ---------------------------------------------------
  total energy   ETOTAL =       -24.009097 eV

  maximum distance moved by ions :      0.25E-03


 mean value of Nose-termostat <S>:     1.000 mean value of <T> :    21.244
 mean temperature <T/S>/<1/S>  :    21.244

    WAVPRE:  cpu time    0.0480: real time    0.0484
    FEWALD:  cpu time    0.0005: real time    0.0005
    ORTHCH:  cpu time    0.0082: real time    0.0082
 Prediction of Wavefunctions ALPHA= 2.138 BETA=-1.165
    POTLOK:  cpu time    0.1291: real time    0.1295
    EDDIAG:  cpu time    0.0394: real time    0.0394
     LOOP+:  cpu time    1.9796: real time    1.9897
    4ORBIT:  cpu time    0.0000: real time    0.0003

 total amount of memory used by VASP MPI-rank0    56740. kBytes
=======================================================================

   base      :      30000. kBytes
   nonl-proj :       2806. kBytes
   fftplans  :       8577. kBytes
   grid      :      13527. kBytes
   one-center:          6. kBytes
   wavefun   :       1824. kBytes
 
  
  
 General timing and accounting informations for this job:
 ========================================================
  
                  Total CPU time used (sec):       26.870
                            User time (sec):       25.272
                          System time (sec):        1.598
                         Elapsed time (sec):       27.598
  
                   Maximum memory used (kb):      175868.
                   Average memory used (kb):           0.
  
                          Minor page faults:       262282
                          Major page faults:          189
                 Voluntary context switches:          650
