<?xml version="1.0" encoding="ISO-8859-1"?>
<modeling>
 <generator>
  <i name="program" type="string">vasp </i>
  <i name="version" type="string">5.4.4.18Apr17-6-g9f103f2a35  </i>
  <i name="subversion" type="string">(build Nov 25 2021 15:25:00) complex            parallel </i>
  <i name="platform" type="string">LinuxIFC </i>
  <i name="date" type="string">2022 02 21 </i>
  <i name="time" type="string">10:17:44 </i>
 </generator>
 <incar>
  <i type="string" name="PREC">a</i>
  <i type="string" name="ALGO">Fast</i>
  <i type="int" name="NELM">   120</i>
  <i type="int" name="NELMIN">     4</i>
  <i type="int" name="IBRION">     0</i>
  <i name="EDIFF">      0.00000100</i>
  <i type="int" name="NSW">    10</i>
  <i type="int" name="ISIF">     2</i>
  <i type="int" name="ISYM">     0</i>
  <i name="ENCUT">    400.00000000</i>
  <i name="POTIM">      0.50000000</i>
  <i type="logical" name="LREAL"> F  </i>
  <i type="int" name="ISMEAR">     0</i>
  <i name="SIGMA">      0.20000000</i>
  <i name="KSPACING">      0.50000000</i>
  <i type="logical" name="KGAMMA"> F  </i>
  <i name="PSTRESS">      0.00000000</i>
  <i type="logical" name="LWAVE"> F  </i>
  <i type="logical" name="LCHARG"> F  </i>
  <v type="int" name="KPOINT_BSE">    -1     0     0     0</v>
  <i type="int" name="NELM">   120</i>
 </incar>
 <structure name="primitive_cell" >
  <crystal>
   <varray name="basis" >
    <v>      10.23329254       0.00000000       0.00000000 </v>
    <v>       0.01573884      10.07328794       0.00000000 </v>
    <v>       0.07095259       0.15835291      10.11213284 </v>
   </varray>
   <i name="volume">   1042.38800177 </i>
   <varray name="rec_basis" >
    <v>       0.09772026      -0.00015268      -0.00068327 </v>
    <v>       0.00000000       0.09927245      -0.00155458 </v>
    <v>       0.00000000       0.00000000       0.09889111 </v>
   </varray>
  </crystal>
  <varray name="positions" >
   <v>      -0.46189530       0.40694543       0.36065194 </v>
   <v>      -0.49704534       0.46705608       0.44482114 </v>
   <v>      -0.47220795       0.41585924      -0.46016349 </v>
   <v>      -0.44765186      -0.43454038       0.44346965 </v>
   <v>       0.39470920       0.48051493       0.43835986 </v>
  </varray>
 </structure>
 <varray name="primitive_index" >
  <v type="int" >        1 </v>
  <v type="int" >        5 </v>
  <v type="int" >        4 </v>
  <v type="int" >        3 </v>
  <v type="int" >        2 </v>
 </varray>
 <kpoints>
  <generation param="Monkhorst-Pack">
   <v type="int" name="divisions">       2        2        2 </v>
   <v name="usershift">      0.00000000       0.00000000       0.00000000 </v>
   <v name="genvec1">      0.50000000       0.00000000       0.00000000 </v>
   <v name="genvec2">      0.00000000       0.50000000       0.00000000 </v>
   <v name="genvec3">      0.00000000       0.00000000       0.50000000 </v>
   <v name="shift">      0.50000000       0.50000000       0.50000000 </v>
  </generation>
  <varray name="kpointlist" >
   <v>       0.25000000       0.25000000       0.25000000 </v>
   <v>      -0.25000000       0.25000000       0.25000000 </v>
   <v>       0.25000000      -0.25000000       0.25000000 </v>
   <v>      -0.25000000      -0.25000000       0.25000000 </v>
  </varray>
  <varray name="weights" >
   <v>       0.25000000 </v>
   <v>       0.25000000 </v>
   <v>       0.25000000 </v>
   <v>       0.25000000 </v>
  </varray>
 </kpoints>
 <parameters>
  <separator name="general" >
   <i type="string" name="SYSTEM">unknown system</i>
   <i type="logical" name="LCOMPAT"> F  </i>
  </separator>
  <separator name="electronic" >
   <i type="string" name="PREC">a</i>
   <i name="ENMAX">    400.00000000</i>
   <i name="ENAUG">    644.87300000</i>
   <i name="EDIFF">      0.00000100</i>
   <i type="int" name="IALGO">    68</i>
   <i type="int" name="IWAVPR">    12</i>
   <i type="int" name="NBANDS">     8</i>
   <i name="NELECT">      8.00000000</i>
   <i type="int" name="TURBO">     0</i>
   <i type="int" name="IRESTART">     0</i>
   <i type="int" name="NREBOOT">     0</i>
   <i type="int" name="NMIN">     0</i>
   <i name="EREF">      0.00000000</i>
   <separator name="electronic smearing" >
    <i type="int" name="ISMEAR">     0</i>
    <i name="SIGMA">      0.20000000</i>
    <i name="KSPACING">      0.50000000</i>
    <i type="logical" name="KGAMMA"> F  </i>
   </separator>
   <separator name="electronic projectors" >
    <i type="logical" name="LREAL"> F  </i>
    <v name="ROPT">      0.00000000      0.00000000</v>
    <i type="int" name="LMAXPAW">  -100</i>
    <i type="int" name="LMAXMIX">     2</i>
    <i type="logical" name="NLSPLINE"> F  </i>
   </separator>
   <separator name="electronic startup" >
    <i type="int" name="ISTART">     0</i>
    <i type="int" name="ICHARG">     2</i>
    <i type="int" name="INIWAV">     1</i>
   </separator>
   <separator name="electronic spin" >
    <i type="int" name="ISPIN">     1</i>
    <i type="logical" name="LNONCOLLINEAR"> F  </i>
    <v name="MAGMOM">      1.00000000      1.00000000      1.00000000      1.00000000      1.00000000</v>
    <i name="NUPDOWN">     -1.00000000</i>
    <i type="logical" name="LSORBIT"> F  </i>
    <v name="SAXIS">      0.00000000      0.00000000      1.00000000</v>
    <i type="logical" name="LSPIRAL"> F  </i>
    <v name="QSPIRAL">      0.00000000      0.00000000      0.00000000</v>
    <i type="logical" name="LZEROZ"> F  </i>
   </separator>
   <separator name="electronic exchange-correlation" >
    <i type="logical" name="LASPH"> F  </i>
    <i type="logical" name="LMETAGGA"> F  </i>
   </separator>
   <separator name="electronic convergence" >
    <i type="int" name="NELM">   120</i>
    <i type="int" name="NELMDL">    -5</i>
    <i type="int" name="NELMIN">     4</i>
    <i name="ENINI">    400.00000000</i>
    <separator name="electronic convergence detail" >
     <i type="logical" name="LDIAG"> T  </i>
     <i type="logical" name="LSUBROT"> F  </i>
     <i name="WEIMIN">      0.00100000</i>
     <i name="EBREAK">      0.00000003</i>
     <i name="DEPER">      0.30000000</i>
     <i type="int" name="NRMM">     4</i>
     <i name="TIME">      0.40000000</i>
    </separator>
   </separator>
   <separator name="electronic mixer" >
    <i name="AMIX">      0.40000000</i>
    <i name="BMIX">      1.00000000</i>
    <i name="AMIN">      0.10000000</i>
    <i name="AMIX_MAG">      1.60000000</i>
    <i name="BMIX_MAG">      1.00000000</i>
    <separator name="electronic mixer details" >
     <i type="int" name="IMIX">     4</i>
     <i type="logical" name="MIXFIRST"> F  </i>
     <i type="int" name="MAXMIX">   -45</i>
     <i name="WC">    100.00000000</i>
     <i type="int" name="INIMIX">     1</i>
     <i type="int" name="MIXPRE">     1</i>
     <i type="int" name="MREMOVE">     5</i>
    </separator>
   </separator>
   <separator name="electronic dipolcorrection" >
    <i type="logical" name="LDIPOL"> F  </i>
    <i type="logical" name="LMONO"> F  </i>
    <i type="int" name="IDIPOL">     0</i>
    <i name="EPSILON">      1.00000000</i>
    <v name="DIPOL">   -100.00000000   -100.00000000   -100.00000000</v>
    <i name="EFIELD">      0.00000000</i>
   </separator>
  </separator>
  <separator name="grids" >
   <i type="int" name="NGX">    70</i>
   <i type="int" name="NGY">    70</i>
   <i type="int" name="NGZ">    70</i>
   <i type="int" name="NGXF">   140</i>
   <i type="int" name="NGYF">   140</i>
   <i type="int" name="NGZF">   140</i>
   <i type="logical" name="ADDGRID"> F  </i>
  </separator>
  <separator name="ionic" >
   <i type="int" name="NSW">    10</i>
   <i type="int" name="IBRION">     0</i>
   <i type="int" name="MDALGO">     0</i>
   <i type="int" name="ISIF">     2</i>
   <i name="PSTRESS">      0.00000000</i>
   <i name="EDIFFG">      0.00001000</i>
   <i type="int" name="NFREE">     0</i>
   <i name="POTIM">      0.50000000</i>
   <i name="SMASS">     -3.00000000</i>
   <i name="SCALEE">      1.00000000</i>
  </separator>
  <separator name="ionic md" >
   <i name="TEBEG">      0.00010000</i>
   <i name="TEEND">      0.00010000</i>
   <i type="int" name="NBLOCK">     1</i>
   <i type="int" name="KBLOCK">    10</i>
   <i type="int" name="NPACO">   256</i>
   <i name="APACO">     16.00000000</i>
  </separator>
  <separator name="symmetry" >
   <i type="int" name="ISYM">     0</i>
   <i name="SYMPREC">      0.00001000</i>
  </separator>
  <separator name="dos" >
   <i type="int" name="LORBIT">     0</i>
   <v name="RWIGS">     -1.00000000     -1.00000000</v>
   <i type="int" name="NEDOS">   301</i>
   <i name="EMIN">     10.00000000</i>
   <i name="EMAX">    -10.00000000</i>
   <i name="EFERMI">      0.00000000</i>
  </separator>
  <separator name="writing" >
   <i type="int" name="NWRITE">     2</i>
   <i type="logical" name="LWAVE"> F  </i>
   <i type="logical" name="LDOWNSAMPLE"> F  </i>
   <i type="logical" name="LCHARG"> F  </i>
   <i type="logical" name="LPARD"> F  </i>
   <i type="logical" name="LVTOT"> F  </i>
   <i type="logical" name="LVHAR"> F  </i>
   <i type="logical" name="LELF"> F  </i>
   <i type="logical" name="LOPTICS"> F  </i>
   <v name="STM">      0.00000000      0.00000000      0.00000000      0.00000000      0.00000000      0.00000000      0.00000000</v>
  </separator>
  <separator name="performance" >
   <i type="int" name="NPAR">     4</i>
   <i type="int" name="NSIM">     4</i>
   <i type="int" name="NBLK">    -1</i>
   <i type="logical" name="LPLANE"> T  </i>
   <i type="logical" name="LSCALAPACK"> T  </i>
   <i type="logical" name="LSCAAWARE"> F  </i>
   <i type="logical" name="LSCALU"> F  </i>
   <i type="logical" name="LASYNC"> F  </i>
   <i type="logical" name="LORBITALREAL"> F  </i>
  </separator>
  <separator name="miscellaneous" >
   <i type="int" name="IDIOT">     3</i>
   <i type="int" name="ISPECIAL">     0</i>
   <i type="logical" name="LMUSIC"> F  </i>
   <v name="POMASS">      1.00000000     12.01100000</v>
   <v name="DARWINR">      0.00000000      0.00000000</v>
   <v name="DARWINV">      1.00000000      1.00000000</v>
   <i type="logical" name="LCORR"> T  </i>
  </separator>
  <i type="logical" name="GGA_COMPAT"> T  </i>
  <i type="logical" name="LBERRY"> F  </i>
  <i type="int" name="ICORELEVEL">     0</i>
  <i type="logical" name="LDAU"> F  </i>
  <i type="int" name="I_CONSTRAINED_M">     0</i>
  <separator name="electronic exchange-correlation" >
   <i type="string" name="GGA">--</i>
   <i type="int" name="VOSKOWN">     0</i>
   <i type="logical" name="LHFCALC"> F  </i>
   <i type="string" name="PRECFOCK"></i>
   <i type="logical" name="LSYMGRAD"> F  </i>
   <i type="logical" name="LHFONE"> F  </i>
   <i type="logical" name="LRHFCALC"> F  </i>
   <i type="logical" name="LTHOMAS"> F  </i>
   <i type="logical" name="LMODELHF"> F  </i>
   <i name="ENCUT4O">     -1.00000000</i>
   <i type="int" name="EXXOEP">     0</i>
   <i type="int" name="FOURORBIT">     0</i>
   <i name="AEXX">      0.00000000</i>
   <i name="HFALPHA">      0.00000000</i>
   <i name="MCALPHA">      0.00000000</i>
   <i name="ALDAX">      1.00000000</i>
   <i name="AGGAX">      1.00000000</i>
   <i name="ALDAC">      1.00000000</i>
   <i name="AGGAC">      1.00000000</i>
   <i type="int" name="NKREDX">     1</i>
   <i type="int" name="NKREDY">     1</i>
   <i type="int" name="NKREDZ">     1</i>
   <i type="logical" name="SHIFTRED"> F  </i>
   <i type="logical" name="ODDONLY"> F  </i>
   <i type="logical" name="EVENONLY"> F  </i>
   <i type="int" name="LMAXFOCK">     0</i>
   <i type="int" name="NMAXFOCKAE">     0</i>
   <i type="logical" name="LFOCKAEDFT"> F  </i>
   <i name="HFSCREEN">      0.00000000</i>
   <i name="HFSCREENC">      0.00000000</i>
   <i type="int" name="NBANDSGWLOW">     0</i>
  </separator>
  <separator name="vdW DFT" >
   <i type="logical" name="LUSE_VDW"> F  </i>
   <i name="Zab_VDW">     -0.84910000</i>
   <i name="PARAM1">      0.12340000</i>
   <i name="PARAM2">      1.00000000</i>
   <i name="PARAM3">      0.00000000</i>
  </separator>
  <separator name="model GW" >
   <i type="int" name="MODEL_GW">     0</i>
   <i name="MODEL_EPS0">    125.08656021</i>
   <i name="MODEL_ALPHA">      1.00000000</i>
  </separator>
  <separator name="linear response parameters" >
   <i type="logical" name="LEPSILON"> F  </i>
   <i type="logical" name="LRPA"> F  </i>
   <i type="logical" name="LNABLA"> F  </i>
   <i type="logical" name="LVEL"> F  </i>
   <i type="int" name="KINTER">     0</i>
   <i name="CSHIFT">      0.10000000</i>
   <i name="OMEGAMAX">     -1.00000000</i>
   <i name="DEG_THRESHOLD">      0.00200000</i>
   <i name="RTIME">     -0.10000000</i>
   <i name="WPLASMAI">      0.00000000</i>
   <v name="DFIELD">      0.00000000      0.00000000      0.00000000</v>
   <v name="WPLASMA">      0.00000000      0.00000000      0.00000000      0.00000000      0.00000000      0.00000000      0.00000000      0.00000000      0.00000000</v>
  </separator>
  <separator name="orbital magnetization" >
   <i type="logical" name="NUCIND"> F  </i>
   <v name="MAGPOS">      0.00000000      0.00000000      0.00000000</v>
   <i type="logical" name="LNICSALL"> T  </i>
   <i type="logical" name="ORBITALMAG"> F  </i>
   <i type="logical" name="LMAGBLOCH"> F  </i>
   <i type="logical" name="LCHIMAG"> F  </i>
   <i type="logical" name="LGAUGE"> T  </i>
   <i type="int" name="MAGATOM">     0</i>
   <v name="MAGDIPOL">      0.00000000      0.00000000      0.00000000</v>
   <v name="AVECCONST">      0.00000000      0.00000000      0.00000000</v>
  </separator>
  <separator name="response functions" >
   <i type="logical" name="LADDER"> F  </i>
   <i type="logical" name="LRPAFORCE"> F  </i>
   <i type="logical" name="LFXC"> F  </i>
   <i type="logical" name="LHARTREE"> T  </i>
   <i type="int" name="IBSE">     0</i>
   <v type="int" name="KPOINT">    -1     0     0     0</v>
   <i type="logical" name="LTCTE"> F  </i>
   <i type="logical" name="LTETE"> F  </i>
   <i type="logical" name="LTRIPLET"> F  </i>
   <i type="logical" name="LFXCEPS"> F  </i>
   <i type="logical" name="LFXHEG"> F  </i>
   <i type="int" name="NATURALO">     2</i>
   <i type="logical" name="L2ORDER"> F  </i>
   <i type="logical" name="LMP2LT"> F  </i>
   <i type="logical" name="LUSEW"> F  </i>
   <i name="ENCUTGW">     -2.00000000</i>
   <i name="ENCUTGWSOFT">     -2.00000000</i>
   <i name="ENCUTLF">     -1.00000000</i>
   <i type="int" name="LMAXMP2">    -1</i>
   <i name="SCISSOR">      0.00000000</i>
   <i type="int" name="NOMEGA">     0</i>
   <i type="int" name="NOMEGAR">     0</i>
   <i type="int" name="NBANDSGW">    -1</i>
   <i type="int" name="NBANDSO">    -1</i>
   <i type="int" name="NBANDSV">    -1</i>
   <i type="int" name="NELM">   120</i>
   <i type="int" name="NELMHF">     1</i>
   <i type="int" name="DIM">     3</i>
   <i type="int" name="ANTIRES">     0</i>
   <i name="OMEGAMAX">    -30.00000000</i>
   <i name="OMEGAMIN">    -30.00000000</i>
   <i name="OMEGATL">   -200.00000000</i>
   <i type="int" name="OMEGAGRID">   140</i>
   <i name="CSHIFT">     -0.10000000</i>
   <i type="logical" name="SELFENERGY"> F  </i>
   <i type="logical" name="LSPECTRAL"> F  </i>
   <i type="logical" name="LSPECTRALGW"> F  </i>
   <i type="logical" name="LSINGLES"> F  </i>
   <i type="logical" name="LFERMIGW"> F  </i>
   <i type="logical" name="ODDONLYGW"> F  </i>
   <i type="logical" name="EVENONLYGW"> F  </i>
   <i type="int" name="NKREDLFX">     1</i>
   <i type="int" name="NKREDLFY">     1</i>
   <i type="int" name="NKREDLFZ">     1</i>
   <i type="int" name="MAXMEM">  2800</i>
   <i type="int" name="TELESCOPE">     0</i>
   <i type="int" name="TAUPAR">     1</i>
   <i type="int" name="OMEGAPAR">    -1</i>
   <i name="LAMBDA">      1.00000000</i>
  </separator>
  <separator name="External order field" >
   <i name="OFIELD_KAPPA">      0.00000000</i>
   <v name="OFIELD_K">      0.00000000      0.00000000      0.00000000</v>
   <i name="OFIELD_Q6_NEAR">      0.00000000</i>
   <i name="OFIELD_Q6_FAR">      0.00000000</i>
   <i name="OFIELD_A">      0.00000000</i>
  </separator>
 </parameters>
 <atominfo>
  <atoms>       5 </atoms>
  <types>       2 </types>
  <array name="atoms" >
   <dimension dim="1">ion</dimension>
   <field type="string">element</field>
   <field type="int">atomtype</field>
   <set>
    <rc><c>H </c><c>   1</c></rc>
    <rc><c>H </c><c>   1</c></rc>
    <rc><c>H </c><c>   1</c></rc>
    <rc><c>H </c><c>   1</c></rc>
    <rc><c>C </c><c>   2</c></rc>
   </set>
  </array>
  <array name="atomtypes" >
   <dimension dim="1">type</dimension>
   <field type="int">atomspertype</field>
   <field type="string">element</field>
   <field>mass</field>
   <field>valence</field>
   <field type="string">pseudopotential</field>
   <set>
    <rc><c>   4</c><c>H </c><c>      1.00000000</c><c>      1.00000000</c><c>  PAW_PBE H 15Jun2001                   </c></rc>
    <rc><c>   1</c><c>C </c><c>     12.01100000</c><c>      4.00000000</c><c>  PAW_PBE C 08Apr2002                   </c></rc>
   </set>
  </array>
 </atominfo>
 <structure name="initialpos" >
  <crystal>
   <varray name="basis" >
    <v>      10.23329254       0.00000000       0.00000000 </v>
    <v>       0.01573884      10.07328794       0.00000000 </v>
    <v>       0.07095259       0.15835291      10.11213284 </v>
   </varray>
   <i name="volume">   1042.38800177 </i>
   <varray name="rec_basis" >
    <v>       0.09772026      -0.00015268      -0.00068327 </v>
    <v>       0.00000000       0.09927245      -0.00155458 </v>
    <v>       0.00000000       0.00000000       0.09889111 </v>
   </varray>
  </crystal>
  <varray name="positions" >
   <v>       0.53810470       0.40694543       0.36065194 </v>
   <v>       0.39470920       0.48051493       0.43835986 </v>
   <v>       0.55234814       0.56545962       0.44346965 </v>
   <v>       0.52779205       0.41585924       0.53983651 </v>
   <v>       0.50295466       0.46705608       0.44482114 </v>
  </varray>
  <varray name="velocities" >
   <v>       0.00000014       0.00000008      -0.00000075 </v>
   <v>       0.00000016       0.00000032       0.00000019 </v>
   <v>      -0.00000030      -0.00000043       0.00000064 </v>
   <v>      -0.00000054       0.00000013       0.00000078 </v>
   <v>       0.00000004      -0.00000001      -0.00000007 </v>
  </varray>
 </structure>
 <calculation>
  <scstep>
   <time name="dav">    0.20    0.22</time>
   <time name="total">    0.35    0.38</time>
   <energy>
    <i name="alphaZ">      0.23239983 </i>
    <i name="ewald">    126.56988376 </i>
    <i name="hartreedc">   -243.64285960 </i>
    <i name="XCdc">     21.91589245 </i>
    <i name="pawpsdc">    117.05815612 </i>
    <i name="pawaedc">   -117.66307307 </i>
    <i name="eentropy">     -0.00000000 </i>
    <i name="bandstr">    -89.73502797 </i>
    <i name="atom">    197.04175453 </i>
    <i name="e_fr_energy">     11.77712605 </i>
    <i name="e_wo_entrp">     11.77712605 </i>
    <i name="e_0_energy">     11.77712605 </i>
   </energy>
  </scstep>
  <scstep>
   <time name="dav">    0.16    0.17</time>
   <time name="total">    0.16    0.17</time>
   <energy>
    <i name="e_fr_energy">    -23.75825393 </i>
    <i name="e_wo_entrp">    -23.75825393 </i>
    <i name="e_0_energy">    -23.75825393 </i>
   </energy>
  </scstep>
  <scstep>
   <time name="dav">    0.15    0.15</time>
   <time name="total">    0.15    0.15</time>
   <energy>
    <i name="e_fr_energy">    -27.16603784 </i>
    <i name="e_wo_entrp">    -27.16603784 </i>
    <i name="e_0_energy">    -27.16603784 </i>
   </energy>
  </scstep>
  <scstep>
   <time name="dav">    0.25    0.26</time>
   <time name="total">    0.25    0.26</time>
   <energy>
    <i name="e_fr_energy">    -27.30610740 </i>
    <i name="e_wo_entrp">    -27.30610740 </i>
    <i name="e_0_energy">    -27.30610740 </i>
   </energy>
  </scstep>
  <scstep>
   <time name="dav">    0.24    0.25</time>
   <time name="total">    0.27    0.28</time>
   <energy>
    <i name="e_fr_energy">    -27.30615180 </i>
    <i name="e_wo_entrp">    -27.30615180 </i>
    <i name="e_0_energy">    -27.30615180 </i>
   </energy>
  </scstep>
  <scstep>
   <time name="diag">    0.04    0.05</time>
   <time name="diis">    0.16    0.16</time>
   <time name="orth">    0.00    0.00</time>
   <time name="total">    0.36    0.38</time>
   <energy>
    <i name="e_fr_energy">    -24.60773029 </i>
    <i name="e_wo_entrp">    -24.60773029 </i>
    <i name="e_0_energy">    -24.60773029 </i>
   </energy>
  </scstep>
  <scstep>
   <time name="diag">    0.05    0.05</time>
   <time name="diis">    0.15    0.16</time>
   <time name="orth">    0.00    0.00</time>
   <time name="total">    0.36    0.37</time>
   <energy>
    <i name="e_fr_energy">    -24.15058715 </i>
    <i name="e_wo_entrp">    -24.15058714 </i>
    <i name="e_0_energy">    -24.15058715 </i>
   </energy>
  </scstep>
  <scstep>
   <time name="diag">    0.04    0.04</time>
   <time name="diis">    0.15    0.16</time>
   <time name="orth">    0.00    0.00</time>
   <time name="total">    0.36    0.36</time>
   <energy>
    <i name="e_fr_energy">    -24.00723315 </i>
    <i name="e_wo_entrp">    -24.00723315 </i>
    <i name="e_0_energy">    -24.00723315 </i>
   </energy>
  </scstep>
  <scstep>
   <time name="diag">    0.04    0.04</time>
   <time name="diis">    0.15    0.16</time>
   <time name="orth">    0.00    0.00</time>
   <time name="total">    0.35    0.36</time>
   <energy>
    <i name="e_fr_energy">    -24.00172609 </i>
    <i name="e_wo_entrp">    -24.00172609 </i>
    <i name="e_0_energy">    -24.00172609 </i>
   </energy>
  </scstep>
  <scstep>
   <time name="diag">    0.04    0.04</time>
   <time name="diis">    0.15    0.16</time>
   <time name="orth">    0.00    0.00</time>
   <time name="total">    0.35    0.35</time>
   <energy>
    <i name="e_fr_energy">    -23.99526693 </i>
    <i name="e_wo_entrp">    -23.99526693 </i>
    <i name="e_0_energy">    -23.99526693 </i>
   </energy>
  </scstep>
  <scstep>
   <time name="diag">    0.04    0.04</time>
   <time name="diis">    0.15    0.15</time>
   <time name="orth">    0.00    0.00</time>
   <time name="total">    0.34    0.35</time>
   <energy>
    <i name="e_fr_energy">    -23.99626568 </i>
    <i name="e_wo_entrp">    -23.99626568 </i>
    <i name="e_0_energy">    -23.99626568 </i>
   </energy>
  </scstep>
  <scstep>
   <time name="diag">    0.04    0.04</time>
   <time name="diis">    0.16    0.16</time>
   <time name="orth">    0.00    0.00</time>
   <time name="total">    0.35    0.35</time>
   <energy>
    <i name="e_fr_energy">    -24.00535803 </i>
    <i name="e_wo_entrp">    -24.00535803 </i>
    <i name="e_0_energy">    -24.00535803 </i>
   </energy>
  </scstep>
  <scstep>
   <time name="diag">    0.04    0.04</time>
   <time name="diis">    0.15    0.15</time>
   <time name="orth">    0.00    0.00</time>
   <time name="total">    0.34    0.35</time>
   <energy>
    <i name="e_fr_energy">    -24.00597104 </i>
    <i name="e_wo_entrp">    -24.00597104 </i>
    <i name="e_0_energy">    -24.00597104 </i>
   </energy>
  </scstep>
  <scstep>
   <time name="diag">    0.04    0.04</time>
   <time name="diis">    0.15    0.15</time>
   <time name="orth">    0.00    0.00</time>
   <time name="total">    0.34    0.35</time>
   <energy>
    <i name="e_fr_energy">    -24.00885923 </i>
    <i name="e_wo_entrp">    -24.00885923 </i>
    <i name="e_0_energy">    -24.00885923 </i>
   </energy>
  </scstep>
  <scstep>
   <time name="diag">    0.04    0.04</time>
   <time name="diis">    0.15    0.16</time>
   <time name="orth">    0.00    0.00</time>
   <time name="total">    0.34    0.34</time>
   <energy>
    <i name="e_fr_energy">    -24.00905811 </i>
    <i name="e_wo_entrp">    -24.00905811 </i>
    <i name="e_0_energy">    -24.00905811 </i>
   </energy>
  </scstep>
  <scstep>
   <time name="diag">    0.04    0.04</time>
   <time name="diis">    0.15    0.15</time>
   <time name="orth">    0.00    0.00</time>
   <time name="total">    0.34    0.34</time>
   <energy>
    <i name="e_fr_energy">    -24.00928034 </i>
    <i name="e_wo_entrp">    -24.00928034 </i>
    <i name="e_0_energy">    -24.00928034 </i>
   </energy>
  </scstep>
  <scstep>
   <time name="diag">    0.04    0.04</time>
   <time name="diis">    0.15    0.15</time>
   <time name="orth">    0.00    0.00</time>
   <time name="total">    0.34    0.34</time>
   <energy>
    <i name="e_fr_energy">    -24.00930966 </i>
    <i name="e_wo_entrp">    -24.00930966 </i>
    <i name="e_0_energy">    -24.00930966 </i>
   </energy>
  </scstep>
  <scstep>
   <time name="diag">    0.04    0.04</time>
   <time name="diis">    0.12    0.12</time>
   <time name="orth">    0.00    0.00</time>
   <time name="total">    0.31    0.32</time>
   <energy>
    <i name="e_fr_energy">    -24.00932580 </i>
    <i name="e_wo_entrp">    -24.00932580 </i>
    <i name="e_0_energy">    -24.00932580 </i>
   </energy>
  </scstep>
  <scstep>
   <time name="diag">    0.04    0.04</time>
   <time name="diis">    0.12    0.12</time>
   <time name="orth">    0.00    0.00</time>
   <time name="total">    0.31    0.32</time>
   <energy>
    <i name="e_fr_energy">    -24.00932880 </i>
    <i name="e_wo_entrp">    -24.00932880 </i>
    <i name="e_0_energy">    -24.00932880 </i>
   </energy>
  </scstep>
  <scstep>
   <time name="diag">    0.04    0.04</time>
   <time name="diis">    0.12    0.12</time>
   <time name="orth">    0.00    0.00</time>
   <time name="total">    0.31    0.32</time>
   <energy>
    <i name="e_fr_energy">    -24.00933053 </i>
    <i name="e_wo_entrp">    -24.00933053 </i>
    <i name="e_0_energy">    -24.00933053 </i>
   </energy>
  </scstep>
  <scstep>
   <time name="diag">    0.04    0.04</time>
   <time name="diis">    0.12    0.12</time>
   <time name="orth">    0.00    0.00</time>
   <time name="total">    0.30    0.30</time>
   <energy>
    <i name="alphaZ">      0.23239983 </i>
    <i name="ewald">    126.56988376 </i>
    <i name="hartreedc">   -282.76651783 </i>
    <i name="XCdc">     24.56040736 </i>
    <i name="pawpsdc">    443.98829837 </i>
    <i name="pawaedc">   -444.76224153 </i>
    <i name="eentropy">     -0.00000000 </i>
    <i name="bandstr">    -88.87331540 </i>
    <i name="atom">    197.04175453 </i>
    <i name="e_fr_energy">    -24.00933093 </i>
    <i name="e_wo_entrp">    -24.00933093 </i>
    <i name="e_0_energy">    -24.00933093 </i>
   </energy>
  </scstep>
  <structure>
   <crystal>
    <varray name="basis" >
     <v>      10.23329254       0.00000000       0.00000000 </v>
     <v>       0.01573884      10.07328794       0.00000000 </v>
     <v>       0.07095259       0.15835291      10.11213284 </v>
    </varray>
    <i name="volume">   1042.38800177 </i>
    <varray name="rec_basis" >
     <v>       0.09772026      -0.00015268      -0.00068327 </v>
     <v>       0.00000000       0.09927245      -0.00155458 </v>
     <v>       0.00000000       0.00000000       0.09889111 </v>
    </varray>
   </crystal>
   <varray name="positions" >
    <v>       0.53810470       0.40694543       0.36065194 </v>
    <v>       0.39470920       0.48051493       0.43835986 </v>
    <v>       0.55234814       0.56545962       0.44346965 </v>
    <v>       0.52779205       0.41585924       0.53983651 </v>
    <v>       0.50295466       0.46705608       0.44482114 </v>
   </varray>
  </structure>
  <varray name="forces" >
   <v>      -0.12547546       0.24797974       0.32072641 </v>
   <v>       0.65769243      -0.05625167       0.04133944 </v>
   <v>      -0.27946983      -0.41845782      -0.09518932 </v>
   <v>      -0.17701642       0.15457520      -0.46744277 </v>
   <v>      -0.07583871       0.07189925       0.20074566 </v>
  </varray>
  <varray name="stress" >
   <v>      -2.03928521      -0.03269650      -0.15538255 </v>
   <v>      -0.03269650      -1.56881667      -0.08158153 </v>
   <v>      -0.15538254      -0.08158153      -1.67560020 </v>
  </varray>
  <energy>
   <i name="e_fr_energy">    -24.00933093 </i>
   <i name="e_wo_entrp">    -24.00933093 </i>
   <i name="e_0_energy">     -0.00000000 </i>
   <i name="kinetic">      0.00034807 </i>
   <i name="lattice kinetic">      0.00000000 </i>
   <i name="nosepot">      0.00000000 </i>
   <i name="nosekinetic">      0.00000000 </i>
   <i name="total">    -24.00898285 </i>
  </energy>
  <time name="totalsc">    7.15    7.31</time>
 </calculation>
 <calculation>
  <scstep>
   <time name="dav">    0.15    0.15</time>
   <time name="total">    0.31    0.31</time>
   <energy>
    <i name="alphaZ">      0.23239983 </i>
    <i name="ewald">    126.85593573 </i>
    <i name="hartreedc">   -282.93589551 </i>
    <i name="XCdc">     24.56895330 </i>
    <i name="pawpsdc">    443.99020671 </i>
    <i name="pawaedc">   -444.76415202 </i>
    <i name="eentropy">     -0.00000000 </i>
    <i name="bandstr">    -89.00125588 </i>
    <i name="atom">    197.04175453 </i>
    <i name="e_fr_energy">    -24.01205331 </i>
    <i name="e_wo_entrp">    -24.01205331 </i>
    <i name="e_0_energy">    -24.01205331 </i>
   </energy>
  </scstep>
  <scstep>
   <time name="diag">    0.04    0.04</time>
   <time name="diis">    0.16    0.16</time>
   <time name="orth">    0.00    0.00</time>
   <time name="total">    0.36    0.36</time>
   <energy>
    <i name="e_fr_energy">    -24.01202447 </i>
    <i name="e_wo_entrp">    -24.01202447 </i>
    <i name="e_0_energy">    -24.01202447 </i>
   </energy>
  </scstep>
  <scstep>
   <time name="diag">    0.04    0.04</time>
   <time name="diis">    0.15    0.15</time>
   <time name="orth">    0.00    0.00</time>
   <time name="total">    0.35    0.35</time>
   <energy>
    <i name="e_fr_energy">    -24.01202358 </i>
    <i name="e_wo_entrp">    -24.01202358 </i>
    <i name="e_0_energy">    -24.01202358 </i>
   </energy>
  </scstep>
  <scstep>
   <time name="diag">    0.04    0.04</time>
   <time name="diis">    0.12    0.12</time>
   <time name="orth">    0.00    0.00</time>
   <time name="total">    0.30    0.30</time>
   <energy>
    <i name="alphaZ">      0.23239983 </i>
    <i name="ewald">    126.85593573 </i>
    <i name="hartreedc">   -283.02542572 </i>
    <i name="XCdc">     24.57392283 </i>
    <i name="pawpsdc">    445.31684743 </i>
    <i name="pawaedc">   -446.09184580 </i>
    <i name="eentropy">     -0.00000000 </i>
    <i name="bandstr">    -88.91561209 </i>
    <i name="atom">    197.04175453 </i>
    <i name="e_fr_energy">    -24.01202325 </i>
    <i name="e_wo_entrp">    -24.01202325 </i>
    <i name="e_0_energy">    -24.01202325 </i>
   </energy>
  </scstep>
  <structure>
   <crystal>
    <varray name="basis" >
     <v>      10.23329254       0.00000000       0.00000000 </v>
     <v>       0.01573884      10.07328794       0.00000000 </v>
     <v>       0.07095259       0.15835291      10.11213284 </v>
    </varray>
    <i name="volume">   1042.38800177 </i>
    <varray name="rec_basis" >
     <v>       0.09772026      -0.00015268      -0.00068327 </v>
     <v>       0.00000000       0.09927245      -0.00155458 </v>
     <v>       0.00000000       0.00000000       0.09889111 </v>
    </varray>
   </crystal>
   <varray name="positions" >
    <v>       0.53807465       0.40700370       0.36072769 </v>
    <v>       0.39486434       0.48050163       0.43836991 </v>
    <v>       0.55228228       0.56535935       0.44344758 </v>
    <v>       0.52775050       0.41589815       0.53972578 </v>
    <v>       0.50295319       0.46705744       0.44482505 </v>
   </varray>
  </structure>
  <varray name="forces" >
   <v>      -0.11558066       0.23004137       0.29630186 </v>
   <v>       0.60949642      -0.05093818       0.03808506 </v>
   <v>      -0.26118670      -0.38525428      -0.09411914 </v>
   <v>      -0.16676920       0.13831686      -0.43369268 </v>
   <v>      -0.06609718       0.06754118       0.19347094 </v>
  </varray>
  <varray name="stress" >
   <v>      -1.94621176      -0.03199016      -0.14849813 </v>
   <v>      -0.03199016      -1.50060447      -0.08313085 </v>
   <v>      -0.14849813      -0.08313085      -1.60625836 </v>
  </varray>
  <energy>
   <i name="e_fr_energy">    -24.01202325 </i>
   <i name="e_wo_entrp">    -24.01202325 </i>
   <i name="e_0_energy">     -0.00000000 </i>
   <i name="kinetic">      0.00298676 </i>
   <i name="lattice kinetic">      0.00000000 </i>
   <i name="nosepot">      0.00000000 </i>
   <i name="nosekinetic">      0.00000000 </i>
   <i name="total">    -24.00903649 </i>
  </energy>
  <time name="totalsc">    1.89    1.90</time>
 </calculation>
 <calculation>
  <scstep>
   <time name="dav">    0.15    0.15</time>
   <time name="total">    0.31    0.31</time>
   <energy>
    <i name="alphaZ">      0.23239983 </i>
    <i name="ewald">    127.40871527 </i>
    <i name="hartreedc">   -283.42571550 </i>
    <i name="XCdc">     24.59574965 </i>
    <i name="pawpsdc">    448.95156154 </i>
    <i name="pawaedc">   -449.72741133 </i>
    <i name="eentropy">     -0.00000000 </i>
    <i name="bandstr">    -89.09374847 </i>
    <i name="atom">    197.04175453 </i>
    <i name="e_fr_energy">    -24.01669448 </i>
    <i name="e_wo_entrp">    -24.01669448 </i>
    <i name="e_0_energy">    -24.01669448 </i>
   </energy>
  </scstep>
  <scstep>
   <time name="diag">    0.04    0.04</time>
   <time name="diis">    0.16    0.16</time>
   <time name="orth">    0.00    0.00</time>
   <time name="total">    0.36    0.36</time>
   <energy>
    <i name="e_fr_energy">    -24.01665678 </i>
    <i name="e_wo_entrp">    -24.01665678 </i>
    <i name="e_0_energy">    -24.01665678 </i>
   </energy>
  </scstep>
  <scstep>
   <time name="diag">    0.04    0.04</time>
   <time name="diis">    0.16    0.16</time>
   <time name="orth">    0.00    0.00</time>
   <time name="total">    0.36    0.36</time>
   <energy>
    <i name="e_fr_energy">    -24.01665549 </i>
    <i name="e_wo_entrp">    -24.01665549 </i>
    <i name="e_0_energy">    -24.01665549 </i>
   </energy>
  </scstep>
  <scstep>
   <time name="diag">    0.04    0.04</time>
   <time name="diis">    0.15    0.15</time>
   <time name="orth">    0.00    0.00</time>
   <time name="total">    0.33    0.33</time>
   <energy>
    <i name="alphaZ">      0.23239983 </i>
    <i name="ewald">    127.40871527 </i>
    <i name="hartreedc">   -283.50856493 </i>
    <i name="XCdc">     24.59962717 </i>
    <i name="pawpsdc">    448.81510764 </i>
    <i name="pawaedc">   -449.59192351 </i>
    <i name="eentropy">     -0.00000000 </i>
    <i name="bandstr">    -89.01377080 </i>
    <i name="atom">    197.04175453 </i>
    <i name="e_fr_energy">    -24.01665480 </i>
    <i name="e_wo_entrp">    -24.01665480 </i>
    <i name="e_0_energy">    -24.01665480 </i>
   </energy>
  </scstep>
  <structure>
   <crystal>
    <varray name="basis" >
     <v>      10.23329254       0.00000000       0.00000000 </v>
     <v>       0.01573884      10.07328794       0.00000000 </v>
     <v>       0.07095259       0.15835291      10.11213284 </v>
    </varray>
    <i name="volume">   1042.38800177 </i>
    <varray name="rec_basis" >
     <v>       0.09772026      -0.00015268      -0.00068327 </v>
     <v>       0.00000000       0.09927245      -0.00155458 </v>
     <v>       0.00000000       0.00000000       0.09889111 </v>
    </varray>
   </crystal>
   <varray name="positions" >
    <v>       0.53801678       0.40711594       0.36087412 </v>
    <v>       0.39516311       0.48047599       0.43838905 </v>
    <v>       0.55215515       0.56516718       0.44340306 </v>
    <v>       0.52767030       0.41597180       0.53951160 </v>
    <v>       0.50295039       0.46706010       0.44483280 </v>
   </varray>
  </structure>
  <varray name="forces" >
   <v>      -0.09771161       0.19753273       0.25202918 </v>
   <v>       0.51935336      -0.04100694       0.03202295 </v>
   <v>      -0.22758178      -0.32440239      -0.09193747 </v>
   <v>      -0.14778708       0.10846400      -0.37128623 </v>
   <v>      -0.04651052       0.05915610       0.17923362 </v>
  </varray>
  <varray name="stress" >
   <v>      -1.74333233      -0.03091933      -0.13511309 </v>
   <v>      -0.03091933      -1.34728806      -0.08670186 </v>
   <v>      -0.13511309      -0.08670186      -1.45047745 </v>
  </varray>
  <energy>
   <i name="e_fr_energy">    -24.01665480 </i>
   <i name="e_wo_entrp">    -24.01665480 </i>
   <i name="e_0_energy">     -0.00000000 </i>
   <i name="kinetic">      0.00752373 </i>
   <i name="lattice kinetic">      0.00000000 </i>
   <i name="nosepot">      0.00000000 </i>
   <i name="nosekinetic">      0.00000000 </i>
   <i name="total">    -24.00913107 </i>
  </energy>
  <time name="totalsc">    1.93    1.94</time>
 </calculation>
 <calculation>
  <scstep>
   <time name="dav">    0.15    0.15</time>
   <time name="total">    0.31    0.31</time>
   <energy>
    <i name="alphaZ">      0.23239983 </i>
    <i name="ewald">    128.19179399 </i>
    <i name="hartreedc">   -284.36293801 </i>
    <i name="XCdc">     24.64389639 </i>
    <i name="pawpsdc">    452.95494758 </i>
    <i name="pawaedc">   -453.73628961 </i>
    <i name="eentropy">     -0.00000000 </i>
    <i name="bandstr">    -88.98767328 </i>
    <i name="atom">    197.04175453 </i>
    <i name="e_fr_energy">    -24.02210859 </i>
    <i name="e_wo_entrp">    -24.02210859 </i>
    <i name="e_0_energy">    -24.02210859 </i>
   </energy>
  </scstep>
  <scstep>
   <time name="diag">    0.05    0.05</time>
   <time name="diis">    0.16    0.16</time>
   <time name="orth">    0.00    0.00</time>
   <time name="total">    0.38    0.38</time>
   <energy>
    <i name="e_fr_energy">    -24.02192633 </i>
    <i name="e_wo_entrp">    -24.02192633 </i>
    <i name="e_0_energy">    -24.02192633 </i>
   </energy>
  </scstep>
  <scstep>
   <time name="diag">    0.04    0.04</time>
   <time name="diis">    0.15    0.15</time>
   <time name="orth">    0.00    0.00</time>
   <time name="total">    0.35    0.35</time>
   <energy>
    <i name="e_fr_energy">    -24.02192812 </i>
    <i name="e_wo_entrp">    -24.02192812 </i>
    <i name="e_0_energy">    -24.02192812 </i>
   </energy>
  </scstep>
  <scstep>
   <time name="diag">    0.04    0.04</time>
   <time name="diis">    0.15    0.15</time>
   <time name="orth">    0.00    0.00</time>
   <time name="total">    0.33    0.33</time>
   <energy>
    <i name="alphaZ">      0.23239983 </i>
    <i name="ewald">    128.19179399 </i>
    <i name="hartreedc">   -284.20170510 </i>
    <i name="XCdc">     24.63634290 </i>
    <i name="pawpsdc">    453.30072728 </i>
    <i name="pawaedc">   -454.08017045 </i>
    <i name="eentropy">     -0.00000000 </i>
    <i name="bandstr">    -89.14307188 </i>
    <i name="atom">    197.04175453 </i>
    <i name="e_fr_energy">    -24.02192891 </i>
    <i name="e_wo_entrp">    -24.02192891 </i>
    <i name="e_0_energy">    -24.02192891 </i>
   </energy>
  </scstep>
  <structure>
   <crystal>
    <varray name="basis" >
     <v>      10.23329254       0.00000000       0.00000000 </v>
     <v>       0.01573884      10.07328794       0.00000000 </v>
     <v>       0.07095259       0.15835291      10.11213284 </v>
    </varray>
    <i name="volume">   1042.38800177 </i>
    <varray name="rec_basis" >
     <v>       0.09772026      -0.00015268      -0.00068327 </v>
     <v>       0.00000000       0.09927245      -0.00155458 </v>
     <v>       0.00000000       0.00000000       0.09889111 </v>
    </varray>
   </crystal>
   <varray name="positions" >
    <v>       0.53793540       0.40727455       0.36108066 </v>
    <v>       0.39558426       0.48044041       0.43841582 </v>
    <v>       0.55197466       0.56489769       0.44333661 </v>
    <v>       0.52755585       0.41607282       0.53920885 </v>
    <v>       0.50294666       0.46706388       0.44484412 </v>
   </varray>
  </structure>
  <varray name="forces" >
   <v>      -0.07240894       0.15140228       0.18918852 </v>
   <v>       0.39021619      -0.02683627       0.02328453 </v>
   <v>      -0.17969955      -0.23796866      -0.08865623 </v>
   <v>      -0.12062747       0.06606568      -0.28230977 </v>
   <v>      -0.01768180       0.04706507       0.15846366 </v>
  </varray>
  <varray name="stress" >
   <v>      -1.45474547      -0.02949487      -0.11577789 </v>
   <v>      -0.02949486      -1.13019706      -0.09172346 </v>
   <v>      -0.11577789      -0.09172346      -1.22944656 </v>
  </varray>
  <energy>
   <i name="e_fr_energy">    -24.02192891 </i>
   <i name="e_wo_entrp">    -24.02192891 </i>
   <i name="e_0_energy">     -0.00000000 </i>
   <i name="kinetic">      0.01269767 </i>
   <i name="lattice kinetic">      0.00000000 </i>
   <i name="nosepot">      0.00000000 </i>
   <i name="nosekinetic">      0.00000000 </i>
   <i name="total">    -24.00923124 </i>
  </energy>
  <time name="totalsc">    1.93    1.94</time>
 </calculation>
 <calculation>
  <scstep>
   <time name="dav">    0.20    0.20</time>
   <time name="total">    0.35    0.35</time>
   <energy>
    <i name="alphaZ">      0.23239983 </i>
    <i name="ewald">    129.15203034 </i>
    <i name="hartreedc">   -285.04000801 </i>
    <i name="XCdc">     24.68047428 </i>
    <i name="pawpsdc">    459.19905114 </i>
    <i name="pawaedc">   -459.98169291 </i>
    <i name="eentropy">     -0.00000000 </i>
    <i name="bandstr">    -89.31033645 </i>
    <i name="atom">    197.04175453 </i>
    <i name="e_fr_energy">    -24.02632725 </i>
    <i name="e_wo_entrp">    -24.02632725 </i>
    <i name="e_0_energy">    -24.02632725 </i>
   </energy>
  </scstep>
  <scstep>
   <time name="diag">    0.04    0.04</time>
   <time name="diis">    0.15    0.15</time>
   <time name="orth">    0.00    0.00</time>
   <time name="total">    0.33    0.33</time>
   <energy>
    <i name="e_fr_energy">    -24.02632757 </i>
    <i name="e_wo_entrp">    -24.02632757 </i>
    <i name="e_0_energy">    -24.02632757 </i>
   </energy>
  </scstep>
  <scstep>
   <time name="diag">    0.04    0.04</time>
   <time name="diis">    0.12    0.12</time>
   <time name="orth">    0.00    0.00</time>
   <time name="total">    0.31    0.31</time>
   <energy>
    <i name="e_fr_energy">    -24.02632935 </i>
    <i name="e_wo_entrp">    -24.02632935 </i>
    <i name="e_0_energy">    -24.02632935 </i>
   </energy>
  </scstep>
  <scstep>
   <time name="diag">    0.04    0.04</time>
   <time name="diis">    0.12    0.12</time>
   <time name="orth">    0.00    0.00</time>
   <time name="total">    0.31    0.31</time>
   <energy>
    <i name="e_fr_energy">    -24.02633047 </i>
    <i name="e_wo_entrp">    -24.02633047 </i>
    <i name="e_0_energy">    -24.02633047 </i>
   </energy>
  </scstep>
  <scstep>
   <time name="diag">    0.04    0.05</time>
   <time name="diis">    0.12    0.12</time>
   <time name="orth">    0.00    0.00</time>
   <time name="total">    0.29    0.30</time>
   <energy>
    <i name="alphaZ">      0.23239983 </i>
    <i name="ewald">    129.15203034 </i>
    <i name="hartreedc">   -285.05205038 </i>
    <i name="XCdc">     24.68108587 </i>
    <i name="pawpsdc">    458.96947248 </i>
    <i name="pawaedc">   -459.75229363 </i>
    <i name="eentropy">     -0.00000000 </i>
    <i name="bandstr">    -89.29873022 </i>
    <i name="atom">    197.04175453 </i>
    <i name="e_fr_energy">    -24.02633119 </i>
    <i name="e_wo_entrp">    -24.02633119 </i>
    <i name="e_0_energy">    -24.02633119 </i>
   </energy>
  </scstep>
  <structure>
   <crystal>
    <varray name="basis" >
     <v>      10.23329254       0.00000000       0.00000000 </v>
     <v>       0.01573884      10.07328794       0.00000000 </v>
     <v>       0.07095259       0.15835291      10.11213284 </v>
    </varray>
    <i name="volume">   1042.38800177 </i>
    <varray name="rec_basis" >
     <v>       0.09772026      -0.00015268      -0.00068327 </v>
     <v>       0.00000000       0.09927245      -0.00155458 </v>
     <v>       0.00000000       0.00000000       0.09889111 </v>
    </varray>
   </crystal>
   <varray name="positions" >
    <v>       0.53783658       0.40746870       0.36133234 </v>
    <v>       0.39609736       0.48039833       0.43844814 </v>
    <v>       0.55175204       0.56457155       0.44324901 </v>
    <v>       0.52741340       0.41619072       0.53883876 </v>
    <v>       0.50294256       0.46706856       0.44485858 </v>
   </varray>
  </structure>
  <varray name="forces" >
   <v>      -0.04037447       0.09280265       0.10934822 </v>
   <v>       0.22626156      -0.00887519       0.01217044 </v>
   <v>      -0.11897294      -0.12844186      -0.08429272 </v>
   <v>      -0.08614581       0.01243377      -0.16935951 </v>
   <v>       0.01883160       0.03197092       0.13223851 </v>
  </varray>
  <varray name="stress" >
   <v>      -1.10861365      -0.02782710      -0.09166040 </v>
   <v>      -0.02782710      -0.87340023      -0.09796242 </v>
   <v>      -0.09166040      -0.09796242      -0.96743923 </v>
  </varray>
  <energy>
   <i name="e_fr_energy">    -24.02633119 </i>
   <i name="e_wo_entrp">    -24.02633119 </i>
   <i name="e_0_energy">     -0.00000000 </i>
   <i name="kinetic">      0.01701795 </i>
   <i name="lattice kinetic">      0.00000000 </i>
   <i name="nosepot">      0.00000000 </i>
   <i name="nosekinetic">      0.00000000 </i>
   <i name="total">    -24.00931324 </i>
  </energy>
  <time name="totalsc">    2.16    2.17</time>
 </calculation>
 <calculation>
  <scstep>
   <time name="dav">    0.16    0.16</time>
   <time name="total">    0.30    0.31</time>
   <energy>
    <i name="alphaZ">      0.23239983 </i>
    <i name="ewald">    130.21985414 </i>
    <i name="hartreedc">   -285.94811139 </i>
    <i name="XCdc">     24.72866219 </i>
    <i name="pawpsdc">    465.22432210 </i>
    <i name="pawaedc">   -466.01039613 </i>
    <i name="eentropy">     -0.00000000 </i>
    <i name="bandstr">    -89.51704998 </i>
    <i name="atom">    197.04175453 </i>
    <i name="e_fr_energy">    -24.02856471 </i>
    <i name="e_wo_entrp">    -24.02856471 </i>
    <i name="e_0_energy">    -24.02856471 </i>
   </energy>
  </scstep>
  <scstep>
   <time name="diag">    0.04    0.04</time>
   <time name="diis">    0.16    0.16</time>
   <time name="orth">    0.00    0.00</time>
   <time name="total">    0.35    0.35</time>
   <energy>
    <i name="e_fr_energy">    -24.02855605 </i>
    <i name="e_wo_entrp">    -24.02855605 </i>
    <i name="e_0_energy">    -24.02855605 </i>
   </energy>
  </scstep>
  <scstep>
   <time name="diag">    0.04    0.04</time>
   <time name="diis">    0.20    0.20</time>
   <time name="orth">    0.00    0.00</time>
   <time name="total">    0.39    0.40</time>
   <energy>
    <i name="e_fr_energy">    -24.02855658 </i>
    <i name="e_wo_entrp">    -24.02855658 </i>
    <i name="e_0_energy">    -24.02855658 </i>
   </energy>
  </scstep>
  <scstep>
   <time name="diag">    0.04    0.04</time>
   <time name="diis">    0.12    0.12</time>
   <time name="orth">    0.00    0.00</time>
   <time name="total">    0.29    0.29</time>
   <energy>
    <i name="alphaZ">      0.23239983 </i>
    <i name="ewald">    130.21985414 </i>
    <i name="hartreedc">   -285.99114422 </i>
    <i name="XCdc">     24.73072210 </i>
    <i name="pawpsdc">    465.32485884 </i>
    <i name="pawaedc">   -466.11143875 </i>
    <i name="eentropy">     -0.00000000 </i>
    <i name="bandstr">    -89.47556338 </i>
    <i name="atom">    197.04175453 </i>
    <i name="e_fr_energy">    -24.02855690 </i>
    <i name="e_wo_entrp">    -24.02855690 </i>
    <i name="e_0_energy">    -24.02855690 </i>
   </energy>
  </scstep>
  <structure>
   <crystal>
    <varray name="basis" >
     <v>      10.23329254       0.00000000       0.00000000 </v>
     <v>       0.01573884      10.07328794       0.00000000 </v>
     <v>       0.07095259       0.15835291      10.11213284 </v>
    </varray>
    <i name="volume">   1042.38800177 </i>
    <varray name="rec_basis" >
     <v>       0.09772026      -0.00015268      -0.00068327 </v>
     <v>       0.00000000       0.09927245      -0.00155458 </v>
     <v>       0.00000000       0.00000000       0.09889111 </v>
    </varray>
   </crystal>
   <varray name="positions" >
    <v>       0.53772804       0.40768467       0.36161009 </v>
    <v>       0.39666379       0.48035408       0.43848337 </v>
    <v>       0.55150157       0.56421496       0.44314130 </v>
    <v>       0.52725093       0.41631224       0.53842827 </v>
    <v>       0.50293882       0.46707383       0.44487566 </v>
   </varray>
  </structure>
  <varray name="forces" >
   <v>      -0.00458209       0.02699702       0.01971828 </v>
   <v>       0.04034243       0.01130988      -0.00058931 </v>
   <v>      -0.05034721      -0.00540568      -0.07884305 </v>
   <v>      -0.04696606      -0.04759789      -0.04193098 </v>
   <v>       0.06135759       0.01458258       0.10173171 </v>
  </varray>
  <varray name="stress" >
   <v>      -0.71773553      -0.02595631      -0.06399842 </v>
   <v>      -0.02595631      -0.58437393      -0.10475412 </v>
   <v>      -0.06399842      -0.10475412      -0.67196191 </v>
  </varray>
  <energy>
   <i name="e_fr_energy">    -24.02855690 </i>
   <i name="e_wo_entrp">    -24.02855690 </i>
   <i name="e_0_energy">     -0.00000000 </i>
   <i name="kinetic">      0.01919093 </i>
   <i name="lattice kinetic">      0.00000000 </i>
   <i name="nosepot">      0.00000000 </i>
   <i name="nosekinetic">      0.00000000 </i>
   <i name="total">    -24.00936597 </i>
  </energy>
  <time name="totalsc">    1.90    1.90</time>
 </calculation>
 <calculation>
  <scstep>
   <time name="dav">    0.15    0.15</time>
   <time name="total">    0.30    0.30</time>
   <energy>
    <i name="alphaZ">      0.23239983 </i>
    <i name="ewald">    131.31412280 </i>
    <i name="hartreedc">   -286.94955241 </i>
    <i name="XCdc">     24.78147415 </i>
    <i name="pawpsdc">    472.02219594 </i>
    <i name="pawaedc">   -472.81264298 </i>
    <i name="eentropy">     -0.00000000 </i>
    <i name="bandstr">    -89.65767026 </i>
    <i name="atom">    197.04175453 </i>
    <i name="e_fr_energy">    -24.02791842 </i>
    <i name="e_wo_entrp">    -24.02791842 </i>
    <i name="e_0_energy">    -24.02791842 </i>
   </energy>
  </scstep>
  <scstep>
   <time name="diag">    0.04    0.04</time>
   <time name="diis">    0.15    0.15</time>
   <time name="orth">    0.00    0.00</time>
   <time name="total">    0.34    0.34</time>
   <energy>
    <i name="e_fr_energy">    -24.02792011 </i>
    <i name="e_wo_entrp">    -24.02792011 </i>
    <i name="e_0_energy">    -24.02792011 </i>
   </energy>
  </scstep>
  <scstep>
   <time name="diag">    0.04    0.04</time>
   <time name="diis">    0.12    0.12</time>
   <time name="orth">    0.00    0.00</time>
   <time name="total">    0.32    0.32</time>
   <energy>
    <i name="e_fr_energy">    -24.02792122 </i>
    <i name="e_wo_entrp">    -24.02792122 </i>
    <i name="e_0_energy">    -24.02792122 </i>
   </energy>
  </scstep>
  <scstep>
   <time name="diag">    0.04    0.04</time>
   <time name="diis">    0.12    0.12</time>
   <time name="orth">    0.00    0.00</time>
   <time name="total">    0.31    0.32</time>
   <energy>
    <i name="e_fr_energy">    -24.02792269 </i>
    <i name="e_wo_entrp">    -24.02792269 </i>
    <i name="e_0_energy">    -24.02792269 </i>
   </energy>
  </scstep>
  <scstep>
   <time name="diag">    0.04    0.04</time>
   <time name="diis">    0.12    0.12</time>
   <time name="orth">    0.00    0.00</time>
   <time name="total">    0.32    0.32</time>
   <energy>
    <i name="e_fr_energy">    -24.02792391 </i>
    <i name="e_wo_entrp">    -24.02792391 </i>
    <i name="e_0_energy">    -24.02792391 </i>
   </energy>
  </scstep>
  <scstep>
   <time name="diag">    0.04    0.04</time>
   <time name="diis">    0.10    0.10</time>
   <time name="orth">    0.00    0.00</time>
   <time name="total">    0.28    0.28</time>
   <energy>
    <i name="alphaZ">      0.23239983 </i>
    <i name="ewald">    131.31412280 </i>
    <i name="hartreedc">   -286.95068021 </i>
    <i name="XCdc">     24.78153023 </i>
    <i name="pawpsdc">    471.92295445 </i>
    <i name="pawaedc">   -472.71335260 </i>
    <i name="eentropy">     -0.00000000 </i>
    <i name="bandstr">    -89.65665319 </i>
    <i name="atom">    197.04175453 </i>
    <i name="e_fr_energy">    -24.02792415 </i>
    <i name="e_wo_entrp">    -24.02792415 </i>
    <i name="e_0_energy">    -24.02792415 </i>
   </energy>
  </scstep>
  <structure>
   <crystal>
    <varray name="basis" >
     <v>      10.23329254       0.00000000       0.00000000 </v>
     <v>       0.01573884      10.07328794       0.00000000 </v>
     <v>       0.07095259       0.15835291      10.11213284 </v>
    </varray>
    <i name="volume">   1042.38800177 </i>
    <varray name="rec_basis" >
     <v>       0.09772026      -0.00015268      -0.00068327 </v>
     <v>       0.00000000       0.09927245      -0.00155458 </v>
     <v>       0.00000000       0.00000000       0.09889111 </v>
    </varray>
   </crystal>
   <varray name="positions" >
    <v>       0.53761838       0.40790703       0.36189255 </v>
    <v>       0.39723973       0.48031254       0.43851846 </v>
    <v>       0.55123937       0.56385738       0.44301479 </v>
    <v>       0.52707748       0.41642252       0.53800778 </v>
    <v>       0.50293627       0.46707937       0.44489477 </v>
   </varray>
  </structure>
  <varray name="forces" >
   <v>       0.03198508      -0.04088342      -0.07266122 </v>
   <v>      -0.15362805       0.03209346      -0.01409605 </v>
   <v>       0.02101587       0.12148034      -0.07226307 </v>
   <v>      -0.00593989      -0.10899827       0.09020636 </v>
   <v>       0.10637797      -0.00374869       0.06891955 </v>
  </varray>
  <varray name="stress" >
   <v>      -0.30897335      -0.02388538      -0.03451305 </v>
   <v>      -0.02388538      -0.28308007      -0.11126766 </v>
   <v>      -0.03451306      -0.11126766      -0.36308877 </v>
  </varray>
  <energy>
   <i name="e_fr_energy">    -24.02792415 </i>
   <i name="e_wo_entrp">    -24.02792415 </i>
   <i name="e_0_energy">     -0.00000000 </i>
   <i name="kinetic">      0.01855968 </i>
   <i name="lattice kinetic">      0.00000000 </i>
   <i name="nosepot">      0.00000000 </i>
   <i name="nosekinetic">      0.00000000 </i>
   <i name="total">    -24.00936447 </i>
  </energy>
  <time name="totalsc">    2.44    2.46</time>
 </calculation>
 <calculation>
  <scstep>
   <time name="dav">    0.15    0.15</time>
   <time name="total">    0.31    0.31</time>
   <energy>
    <i name="alphaZ">      0.23239983 </i>
    <i name="ewald">    132.34778624 </i>
    <i name="hartreedc">   -287.87161210 </i>
    <i name="XCdc">     24.83023137 </i>
    <i name="pawpsdc">    478.32174317 </i>
    <i name="pawaedc">   -479.11596241 </i>
    <i name="eentropy">     -0.00000000 </i>
    <i name="bandstr">    -89.81093545 </i>
    <i name="atom">    197.04175453 </i>
    <i name="e_fr_energy">    -24.02459482 </i>
    <i name="e_wo_entrp">    -24.02459482 </i>
    <i name="e_0_energy">    -24.02459482 </i>
   </energy>
  </scstep>
  <scstep>
   <time name="diag">    0.04    0.04</time>
   <time name="diis">    0.15    0.16</time>
   <time name="orth">    0.00    0.00</time>
   <time name="total">    0.35    0.35</time>
   <energy>
    <i name="e_fr_energy">    -24.02459895 </i>
    <i name="e_wo_entrp">    -24.02459895 </i>
    <i name="e_0_energy">    -24.02459895 </i>
   </energy>
  </scstep>
  <scstep>
   <time name="diag">    0.04    0.04</time>
   <time name="diis">    0.12    0.12</time>
   <time name="orth">    0.00    0.00</time>
   <time name="total">    0.32    0.32</time>
   <energy>
    <i name="e_fr_energy">    -24.02460493 </i>
    <i name="e_wo_entrp">    -24.02460493 </i>
    <i name="e_0_energy">    -24.02460493 </i>
   </energy>
  </scstep>
  <scstep>
   <time name="diag">    0.04    0.04</time>
   <time name="diis">    0.13    0.13</time>
   <time name="orth">    0.00    0.00</time>
   <time name="total">    0.33    0.33</time>
   <energy>
    <i name="e_fr_energy">    -24.02460817 </i>
    <i name="e_wo_entrp">    -24.02460817 </i>
    <i name="e_0_energy">    -24.02460817 </i>
   </energy>
  </scstep>
  <scstep>
   <time name="diag">    0.04    0.04</time>
   <time name="diis">    0.12    0.13</time>
   <time name="orth">    0.00    0.00</time>
   <time name="total">    0.33    0.33</time>
   <energy>
    <i name="e_fr_energy">    -24.02461295 </i>
    <i name="e_wo_entrp">    -24.02461295 </i>
    <i name="e_0_energy">    -24.02461295 </i>
   </energy>
  </scstep>
  <scstep>
   <time name="diag">    0.04    0.04</time>
   <time name="diis">    0.13    0.13</time>
   <time name="orth">    0.00    0.00</time>
   <time name="total">    0.33    0.33</time>
   <energy>
    <i name="e_fr_energy">    -24.02461842 </i>
    <i name="e_wo_entrp">    -24.02461842 </i>
    <i name="e_0_energy">    -24.02461842 </i>
   </energy>
  </scstep>
  <scstep>
   <time name="diag">    0.04    0.04</time>
   <time name="diis">    0.12    0.12</time>
   <time name="orth">    0.00    0.00</time>
   <time name="total">    0.30    0.30</time>
   <energy>
    <i name="alphaZ">      0.23239983 </i>
    <i name="ewald">    132.34778624 </i>
    <i name="hartreedc">   -287.85553019 </i>
    <i name="XCdc">     24.82938215 </i>
    <i name="pawpsdc">    478.25108993 </i>
    <i name="pawaedc">   -479.04515242 </i>
    <i name="eentropy">     -0.00000000 </i>
    <i name="bandstr">    -89.82634902 </i>
    <i name="atom">    197.04175453 </i>
    <i name="e_fr_energy">    -24.02461897 </i>
    <i name="e_wo_entrp">    -24.02461897 </i>
    <i name="e_0_energy">    -24.02461897 </i>
   </energy>
  </scstep>
  <structure>
   <crystal>
    <varray name="basis" >
     <v>      10.23329254       0.00000000       0.00000000 </v>
     <v>       0.01573884      10.07328794       0.00000000 </v>
     <v>       0.07095259       0.15835291      10.11213284 </v>
    </varray>
    <i name="volume">   1042.38800177 </i>
    <varray name="rec_basis" >
     <v>       0.09772026      -0.00015268      -0.00068327 </v>
     <v>       0.00000000       0.09927245      -0.00155458 </v>
     <v>       0.00000000       0.00000000       0.09889111 </v>
    </varray>
   </crystal>
   <varray name="positions" >
    <v>       0.53751640       0.40811988       0.36215768 </v>
    <v>       0.39777947       0.48027874       0.43855018 </v>
    <v>       0.55098220       0.56352917       0.44287103 </v>
    <v>       0.52690252       0.41650636       0.53760880 </v>
    <v>       0.50293580       0.46708481       0.44491524 </v>
   </varray>
  </structure>
  <varray name="forces" >
   <v>       0.06682880      -0.10647154      -0.16178452 </v>
   <v>      -0.34099852       0.05177341      -0.02739060 </v>
   <v>       0.09036420       0.24318713      -0.06450116 </v>
   <v>       0.03432850      -0.16704671       0.21786655 </v>
   <v>       0.14938209      -0.02149367       0.03588998 </v>
  </varray>
  <varray name="stress" >
   <v>       0.07911067      -0.02150426      -0.00523816 </v>
   <v>      -0.02150426       0.00103351      -0.11607654 </v>
   <v>      -0.00523817      -0.11607654      -0.07008837 </v>
  </varray>
  <energy>
   <i name="e_fr_energy">    -24.02461897 </i>
   <i name="e_wo_entrp">    -24.02461897 </i>
   <i name="e_0_energy">     -0.00000000 </i>
   <i name="kinetic">      0.01531783 </i>
   <i name="lattice kinetic">      0.00000000 </i>
   <i name="nosepot">      0.00000000 </i>
   <i name="nosekinetic">      0.00000000 </i>
   <i name="total">    -24.00930113 </i>
  </energy>
  <time name="totalsc">    2.83    2.84</time>
 </calculation>
 <calculation>
  <scstep>
   <time name="dav">    0.15    0.15</time>
   <time name="total">    0.31    0.31</time>
   <energy>
    <i name="alphaZ">      0.23239983 </i>
    <i name="ewald">    133.23412204 </i>
    <i name="hartreedc">   -288.62629163 </i>
    <i name="XCdc">     24.87011054 </i>
    <i name="pawpsdc">    483.83272424 </i>
    <i name="pawaedc">   -484.62994852 </i>
    <i name="eentropy">     -0.00000000 </i>
    <i name="bandstr">    -89.97457095 </i>
    <i name="atom">    197.04175453 </i>
    <i name="e_fr_energy">    -24.01969992 </i>
    <i name="e_wo_entrp">    -24.01969992 </i>
    <i name="e_0_energy">    -24.01969992 </i>
   </energy>
  </scstep>
  <scstep>
   <time name="diag">    0.04    0.04</time>
   <time name="diis">    0.15    0.15</time>
   <time name="orth">    0.00    0.00</time>
   <time name="total">    0.34    0.35</time>
   <energy>
    <i name="e_fr_energy">    -24.01970060 </i>
    <i name="e_wo_entrp">    -24.01970060 </i>
    <i name="e_0_energy">    -24.01970060 </i>
   </energy>
  </scstep>
  <scstep>
   <time name="diag">    0.04    0.04</time>
   <time name="diis">    0.12    0.12</time>
   <time name="orth">    0.00    0.00</time>
   <time name="total">    0.31    0.31</time>
   <energy>
    <i name="e_fr_energy">    -24.01970091 </i>
    <i name="e_wo_entrp">    -24.01970091 </i>
    <i name="e_0_energy">    -24.01970091 </i>
   </energy>
  </scstep>
  <scstep>
   <time name="diag">    0.04    0.04</time>
   <time name="diis">    0.12    0.12</time>
   <time name="orth">    0.00    0.00</time>
   <time name="total">    0.29    0.29</time>
   <energy>
    <i name="alphaZ">      0.23239983 </i>
    <i name="ewald">    133.23412204 </i>
    <i name="hartreedc">   -288.63140167 </i>
    <i name="XCdc">     24.87038526 </i>
    <i name="pawpsdc">    483.77624344 </i>
    <i name="pawaedc">   -484.57349330 </i>
    <i name="eentropy">     -0.00000000 </i>
    <i name="bandstr">    -89.96971152 </i>
    <i name="atom">    197.04175453 </i>
    <i name="e_fr_energy">    -24.01970138 </i>
    <i name="e_wo_entrp">    -24.01970138 </i>
    <i name="e_0_energy">    -24.01970138 </i>
   </energy>
  </scstep>
  <structure>
   <crystal>
    <varray name="basis" >
     <v>      10.23329254       0.00000000       0.00000000 </v>
     <v>       0.01573884      10.07328794       0.00000000 </v>
     <v>       0.07095259       0.15835291      10.11213284 </v>
    </varray>
    <i name="volume">   1042.38800177 </i>
    <varray name="rec_basis" >
     <v>       0.09772026      -0.00015268      -0.00068327 </v>
     <v>       0.00000000       0.09927245      -0.00155458 </v>
     <v>       0.00000000       0.00000000       0.09889111 </v>
    </varray>
   </crystal>
   <varray name="positions" >
    <v>       0.53743048       0.40830783       0.36238421 </v>
    <v>       0.39823885       0.48025744       0.43857537 </v>
    <v>       0.55074635       0.56325942       0.44271189 </v>
    <v>       0.52673536       0.41654939       0.53726179 </v>
    <v>       0.50293826       0.46708981       0.44493642 </v>
   </varray>
  </structure>
  <varray name="forces" >
   <v>       0.09666770      -0.16398350      -0.23969391 </v>
   <v>      -0.50394905       0.06823922      -0.03929618 </v>
   <v>       0.15165632       0.34830206      -0.05547105 </v>
   <v>       0.07050961      -0.21570230       0.32941139 </v>
   <v>       0.18505976      -0.03685966       0.00516481 </v>
  </varray>
  <varray name="stress" >
   <v>       0.41423203      -0.01860938       0.02182321 </v>
   <v>      -0.01860938       0.24472009      -0.11743287 </v>
   <v>       0.02182321      -0.11743287       0.18411119 </v>
  </varray>
  <energy>
   <i name="e_fr_energy">    -24.01970138 </i>
   <i name="e_wo_entrp">    -24.01970138 </i>
   <i name="e_0_energy">     -0.00000000 </i>
   <i name="kinetic">      0.01050057 </i>
   <i name="lattice kinetic">      0.00000000 </i>
   <i name="nosepot">      0.00000000 </i>
   <i name="nosekinetic">      0.00000000 </i>
   <i name="total">    -24.00920081 </i>
  </energy>
  <time name="totalsc">    1.82    1.82</time>
 </calculation>
 <calculation>
  <scstep>
   <time name="dav">    0.15    0.15</time>
   <time name="total">    0.31    0.31</time>
   <energy>
    <i name="alphaZ">      0.23239983 </i>
    <i name="ewald">    133.89549835 </i>
    <i name="hartreedc">   -289.21176565 </i>
    <i name="XCdc">     24.90101870 </i>
    <i name="pawpsdc">    487.97827896 </i>
    <i name="pawaedc">   -488.77795881 </i>
    <i name="eentropy">     -0.00000000 </i>
    <i name="bandstr">    -90.07402000 </i>
    <i name="atom">    197.04175453 </i>
    <i name="e_fr_energy">    -24.01479409 </i>
    <i name="e_wo_entrp">    -24.01479409 </i>
    <i name="e_0_energy">    -24.01479409 </i>
   </energy>
  </scstep>
  <scstep>
   <time name="diag">    0.04    0.04</time>
   <time name="diis">    0.15    0.15</time>
   <time name="orth">    0.00    0.00</time>
   <time name="total">    0.34    0.34</time>
   <energy>
    <i name="e_fr_energy">    -24.01479471 </i>
    <i name="e_wo_entrp">    -24.01479471 </i>
    <i name="e_0_energy">    -24.01479471 </i>
   </energy>
  </scstep>
  <scstep>
   <time name="diag">    0.04    0.04</time>
   <time name="diis">    0.12    0.12</time>
   <time name="orth">    0.00    0.00</time>
   <time name="total">    0.31    0.32</time>
   <energy>
    <i name="e_fr_energy">    -24.01479496 </i>
    <i name="e_wo_entrp">    -24.01479496 </i>
    <i name="e_0_energy">    -24.01479496 </i>
   </energy>
  </scstep>
  <scstep>
   <time name="diag">    0.04    0.04</time>
   <time name="diis">    0.12    0.12</time>
   <time name="orth">    0.00    0.00</time>
   <time name="total">    0.29    0.29</time>
   <energy>
    <i name="alphaZ">      0.23239983 </i>
    <i name="ewald">    133.89549835 </i>
    <i name="hartreedc">   -289.20832418 </i>
    <i name="XCdc">     24.90090092 </i>
    <i name="pawpsdc">    487.92710857 </i>
    <i name="pawaedc">   -488.72672736 </i>
    <i name="eentropy">     -0.00000000 </i>
    <i name="bandstr">    -90.07740602 </i>
    <i name="atom">    197.04175453 </i>
    <i name="e_fr_energy">    -24.01479536 </i>
    <i name="e_wo_entrp">    -24.01479536 </i>
    <i name="e_0_energy">    -24.01479536 </i>
   </energy>
  </scstep>
  <structure>
   <crystal>
    <varray name="basis" >
     <v>      10.23329254       0.00000000       0.00000000 </v>
     <v>       0.01573884      10.07328794       0.00000000 </v>
     <v>       0.07095259       0.15835291      10.11213284 </v>
    </varray>
    <i name="volume">   1042.38800177 </i>
    <varray name="rec_basis" >
     <v>       0.09772026      -0.00015268      -0.00068327 </v>
     <v>       0.00000000       0.09927245      -0.00155458 </v>
     <v>       0.00000000       0.00000000       0.09889111 </v>
    </varray>
   </crystal>
   <varray name="positions" >
    <v>       0.53736780       0.40845742       0.36255356 </v>
    <v>       0.39857949       0.48025263       0.43859118 </v>
    <v>       0.55054621       0.56307329       0.44253951 </v>
    <v>       0.52658435       0.41653953       0.53699336 </v>
    <v>       0.50294435       0.46709407       0.44495771 </v>
   </varray>
  </structure>
  <varray name="forces" >
   <v>       0.11874605      -0.20857041      -0.29969800 </v>
   <v>      -0.62610182       0.07957483      -0.04870709 </v>
   <v>       0.19970666       0.42696929      -0.04505914 </v>
   <v>       0.09972652      -0.24975504       0.41474605 </v>
   <v>       0.20790961      -0.04825217      -0.02112727 </v>
  </varray>
  <varray name="stress" >
   <v>       0.66521883      -0.01489645       0.04487895 </v>
   <v>      -0.01489644       0.42543015      -0.11362630 </v>
   <v>       0.04487895      -0.11362630       0.37729959 </v>
  </varray>
  <energy>
   <i name="e_fr_energy">    -24.01479536 </i>
   <i name="e_wo_entrp">    -24.01479536 </i>
   <i name="e_0_energy">     -0.00000000 </i>
   <i name="kinetic">      0.00569879 </i>
   <i name="lattice kinetic">      0.00000000 </i>
   <i name="nosepot">      0.00000000 </i>
   <i name="nosekinetic">      0.00000000 </i>
   <i name="total">    -24.00909657 </i>
  </energy>
  <dos>
   <i name="efermi">     -8.36693736 </i>
   <total>
    <array>
     <dimension dim="1">gridpoints</dimension>
     <dimension dim="2">spin</dimension>
     <field>energy</field>
     <field>total</field>
     <field>integrated</field>
     <set>
      <set comment="spin 1">
       <r>   -18.9972     0.0000     0.0000 </r>
       <r>   -18.9249     0.0000     0.0000 </r>
       <r>   -18.8526     0.0000     0.0000 </r>
       <r>   -18.7803     0.0000     0.0000 </r>
       <r>   -18.7079     0.0000     0.0000 </r>
       <r>   -18.6356     0.0000     0.0000 </r>
       <r>   -18.5633     0.0000     0.0000 </r>
       <r>   -18.4910     0.0000     0.0000 </r>
       <r>   -18.4187     0.0000     0.0000 </r>
       <r>   -18.3464     0.0000     0.0000 </r>
       <r>   -18.2741     0.0000     0.0000 </r>
       <r>   -18.2017     0.0000     0.0000 </r>
       <r>   -18.1294     0.0000     0.0000 </r>
       <r>   -18.0571     0.0000     0.0000 </r>
       <r>   -17.9848     0.0000     0.0000 </r>
       <r>   -17.9125     0.0000     0.0000 </r>
       <r>   -17.8402     0.0000     0.0000 </r>
       <r>   -17.7679     0.0000     0.0000 </r>
       <r>   -17.6955     0.0001     0.0000 </r>
       <r>   -17.6232     0.0009     0.0001 </r>
       <r>   -17.5509     0.0087     0.0007 </r>
       <r>   -17.4786     0.0629     0.0052 </r>
       <r>   -17.4063     0.3533     0.0306 </r>
       <r>   -17.3340     1.5411     0.1414 </r>
       <r>   -17.2617     5.2190     0.5166 </r>
       <r>   -17.1894    13.7267     1.5032 </r>
       <r>   -17.1170    28.0464     3.5190 </r>
       <r>   -17.0447    44.5277     6.7189 </r>
       <r>   -16.9724    54.9440    10.6670 </r>
       <r>   -16.9001    52.7026    14.4535 </r>
       <r>   -16.8278    39.3045    17.2771 </r>
       <r>   -16.7555    22.7938    18.9143 </r>
       <r>   -16.6832    10.2803    19.6526 </r>
       <r>   -16.6108     3.6063    19.9115 </r>
       <r>   -16.5385     0.9840    19.9822 </r>
       <r>   -16.4662     0.2089    19.9972 </r>
       <r>   -16.3939     0.0345    19.9996 </r>
       <r>   -16.3216     0.0044    20.0000 </r>
       <r>   -16.2493     0.0004    20.0000 </r>
       <r>   -16.1770     0.0000    20.0000 </r>
       <r>   -16.1046     0.0000    20.0000 </r>
       <r>   -16.0323     0.0000    20.0000 </r>
       <r>   -15.9600     0.0000    20.0000 </r>
       <r>   -15.8877     0.0000    20.0000 </r>
       <r>   -15.8154     0.0000    20.0000 </r>
       <r>   -15.7431     0.0000    20.0000 </r>
       <r>   -15.6708     0.0000    20.0000 </r>
       <r>   -15.5984     0.0000    20.0000 </r>
       <r>   -15.5261     0.0000    20.0000 </r>
       <r>   -15.4538     0.0000    20.0000 </r>
       <r>   -15.3815     0.0000    20.0000 </r>
       <r>   -15.3092     0.0000    20.0000 </r>
       <r>   -15.2369     0.0000    20.0000 </r>
       <r>   -15.1646     0.0000    20.0000 </r>
       <r>   -15.0923     0.0000    20.0000 </r>
       <r>   -15.0199     0.0000    20.0000 </r>
       <r>   -14.9476     0.0000    20.0000 </r>
       <r>   -14.8753     0.0000    20.0000 </r>
       <r>   -14.8030     0.0000    20.0000 </r>
       <r>   -14.7307     0.0000    20.0000 </r>
       <r>   -14.6584     0.0000    20.0000 </r>
       <r>   -14.5861     0.0000    20.0000 </r>
       <r>   -14.5137     0.0000    20.0000 </r>
       <r>   -14.4414     0.0000    20.0000 </r>
       <r>   -14.3691     0.0000    20.0000 </r>
       <r>   -14.2968     0.0000    20.0000 </r>
       <r>   -14.2245     0.0000    20.0000 </r>
       <r>   -14.1522     0.0000    20.0000 </r>
       <r>   -14.0799     0.0000    20.0000 </r>
       <r>   -14.0075     0.0000    20.0000 </r>
       <r>   -13.9352     0.0000    20.0000 </r>
       <r>   -13.8629     0.0000    20.0000 </r>
       <r>   -13.7906     0.0000    20.0000 </r>
       <r>   -13.7183     0.0000    20.0000 </r>
       <r>   -13.6460     0.0000    20.0000 </r>
       <r>   -13.5737     0.0000    20.0000 </r>
       <r>   -13.5014     0.0000    20.0000 </r>
       <r>   -13.4290     0.0000    20.0000 </r>
       <r>   -13.3567     0.0000    20.0000 </r>
       <r>   -13.2844     0.0000    20.0000 </r>
       <r>   -13.2121     0.0000    20.0000 </r>
       <r>   -13.1398     0.0000    20.0000 </r>
       <r>   -13.0675     0.0000    20.0000 </r>
       <r>   -12.9952     0.0000    20.0000 </r>
       <r>   -12.9228     0.0000    20.0000 </r>
       <r>   -12.8505     0.0000    20.0000 </r>
       <r>   -12.7782     0.0000    20.0000 </r>
       <r>   -12.7059     0.0000    20.0000 </r>
       <r>   -12.6336     0.0000    20.0000 </r>
       <r>   -12.5613     0.0000    20.0000 </r>
       <r>   -12.4890     0.0000    20.0000 </r>
       <r>   -12.4166     0.0000    20.0000 </r>
       <r>   -12.3443     0.0000    20.0000 </r>
       <r>   -12.2720     0.0000    20.0000 </r>
       <r>   -12.1997     0.0000    20.0000 </r>
       <r>   -12.1274     0.0000    20.0000 </r>
       <r>   -12.0551     0.0000    20.0000 </r>
       <r>   -11.9828     0.0000    20.0000 </r>
       <r>   -11.9105     0.0000    20.0000 </r>
       <r>   -11.8381     0.0000    20.0000 </r>
       <r>   -11.7658     0.0000    20.0000 </r>
       <r>   -11.6935     0.0000    20.0000 </r>
       <r>   -11.6212     0.0000    20.0000 </r>
       <r>   -11.5489     0.0000    20.0000 </r>
       <r>   -11.4766     0.0000    20.0000 </r>
       <r>   -11.4043     0.0000    20.0000 </r>
       <r>   -11.3319     0.0000    20.0000 </r>
       <r>   -11.2596     0.0000    20.0000 </r>
       <r>   -11.1873     0.0000    20.0000 </r>
       <r>   -11.1150     0.0000    20.0000 </r>
       <r>   -11.0427     0.0000    20.0000 </r>
       <r>   -10.9704     0.0000    20.0000 </r>
       <r>   -10.8981     0.0000    20.0000 </r>
       <r>   -10.8257     0.0000    20.0000 </r>
       <r>   -10.7534     0.0000    20.0000 </r>
       <r>   -10.6811     0.0000    20.0000 </r>
       <r>   -10.6088     0.0000    20.0000 </r>
       <r>   -10.5365     0.0000    20.0000 </r>
       <r>   -10.4642     0.0000    20.0000 </r>
       <r>   -10.3919     0.0000    20.0000 </r>
       <r>   -10.3195     0.0000    20.0000 </r>
       <r>   -10.2472     0.0000    20.0000 </r>
       <r>   -10.1749     0.0000    20.0000 </r>
       <r>   -10.1026     0.0001    20.0000 </r>
       <r>   -10.0303     0.0016    20.0001 </r>
       <r>    -9.9580     0.0148    20.0012 </r>
       <r>    -9.8857     0.1074    20.0089 </r>
       <r>    -9.8134     0.6123    20.0529 </r>
       <r>    -9.7410     2.7474    20.2501 </r>
       <r>    -9.6687     9.7138    20.9477 </r>
       <r>    -9.5964    27.1061    22.8948 </r>
       <r>    -9.5241    59.7990    27.1909 </r>
       <r>    -9.4518   104.4773    34.6978 </r>
       <r>    -9.3795   144.8046    45.1031 </r>
       <r>    -9.3072   159.4512    56.5613 </r>
       <r>    -9.2348   139.6576    66.5968 </r>
       <r>    -9.1625    97.3614    73.5925 </r>
       <r>    -9.0902    54.0292    77.4741 </r>
       <r>    -9.0179    23.8533    79.1875 </r>
       <r>    -8.9456     8.3685    79.7885 </r>
       <r>    -8.8733     2.3292    79.9558 </r>
       <r>    -8.8010     0.5133    79.9926 </r>
       <r>    -8.7286     0.0894    79.9990 </r>
       <r>    -8.6563     0.0123    79.9999 </r>
       <r>    -8.5840     0.0013    80.0000 </r>
       <r>    -8.5117     0.0001    80.0000 </r>
       <r>    -8.4394     0.0000    80.0000 </r>
       <r>    -8.3671     0.0000    80.0000 </r>
       <r>    -8.2948     0.0000    80.0000 </r>
       <r>    -8.2225     0.0000    80.0000 </r>
       <r>    -8.1501     0.0000    80.0000 </r>
       <r>    -8.0778     0.0000    80.0000 </r>
       <r>    -8.0055     0.0000    80.0000 </r>
       <r>    -7.9332     0.0000    80.0000 </r>
       <r>    -7.8609     0.0000    80.0000 </r>
       <r>    -7.7886     0.0000    80.0000 </r>
       <r>    -7.7163     0.0000    80.0000 </r>
       <r>    -7.6439     0.0000    80.0000 </r>
       <r>    -7.5716     0.0000    80.0000 </r>
       <r>    -7.4993     0.0000    80.0000 </r>
       <r>    -7.4270     0.0000    80.0000 </r>
       <r>    -7.3547     0.0000    80.0000 </r>
       <r>    -7.2824     0.0000    80.0000 </r>
       <r>    -7.2101     0.0000    80.0000 </r>
       <r>    -7.1377     0.0000    80.0000 </r>
       <r>    -7.0654     0.0000    80.0000 </r>
       <r>    -6.9931     0.0000    80.0000 </r>
       <r>    -6.9208     0.0000    80.0000 </r>
       <r>    -6.8485     0.0000    80.0000 </r>
       <r>    -6.7762     0.0000    80.0000 </r>
       <r>    -6.7039     0.0000    80.0000 </r>
       <r>    -6.6315     0.0000    80.0000 </r>
       <r>    -6.5592     0.0000    80.0000 </r>
       <r>    -6.4869     0.0000    80.0000 </r>
       <r>    -6.4146     0.0000    80.0000 </r>
       <r>    -6.3423     0.0000    80.0000 </r>
       <r>    -6.2700     0.0000    80.0000 </r>
       <r>    -6.1977     0.0000    80.0000 </r>
       <r>    -6.1254     0.0000    80.0000 </r>
       <r>    -6.0530     0.0000    80.0000 </r>
       <r>    -5.9807     0.0000    80.0000 </r>
       <r>    -5.9084     0.0000    80.0000 </r>
       <r>    -5.8361     0.0000    80.0000 </r>
       <r>    -5.7638     0.0000    80.0000 </r>
       <r>    -5.6915     0.0000    80.0000 </r>
       <r>    -5.6192     0.0000    80.0000 </r>
       <r>    -5.5468     0.0000    80.0000 </r>
       <r>    -5.4745     0.0000    80.0000 </r>
       <r>    -5.4022     0.0000    80.0000 </r>
       <r>    -5.3299     0.0000    80.0000 </r>
       <r>    -5.2576     0.0000    80.0000 </r>
       <r>    -5.1853     0.0000    80.0000 </r>
       <r>    -5.1130     0.0000    80.0000 </r>
       <r>    -5.0406     0.0000    80.0000 </r>
       <r>    -4.9683     0.0000    80.0000 </r>
       <r>    -4.8960     0.0000    80.0000 </r>
       <r>    -4.8237     0.0000    80.0000 </r>
       <r>    -4.7514     0.0000    80.0000 </r>
       <r>    -4.6791     0.0000    80.0000 </r>
       <r>    -4.6068     0.0000    80.0000 </r>
       <r>    -4.5345     0.0000    80.0000 </r>
       <r>    -4.4621     0.0000    80.0000 </r>
       <r>    -4.3898     0.0000    80.0000 </r>
       <r>    -4.3175     0.0000    80.0000 </r>
       <r>    -4.2452     0.0000    80.0000 </r>
       <r>    -4.1729     0.0000    80.0000 </r>
       <r>    -4.1006     0.0000    80.0000 </r>
       <r>    -4.0283     0.0000    80.0000 </r>
       <r>    -3.9559     0.0000    80.0000 </r>
       <r>    -3.8836     0.0000    80.0000 </r>
       <r>    -3.8113     0.0000    80.0000 </r>
       <r>    -3.7390     0.0000    80.0000 </r>
       <r>    -3.6667     0.0000    80.0000 </r>
       <r>    -3.5944     0.0000    80.0000 </r>
       <r>    -3.5221     0.0000    80.0000 </r>
       <r>    -3.4497     0.0000    80.0000 </r>
       <r>    -3.3774     0.0000    80.0000 </r>
       <r>    -3.3051     0.0000    80.0000 </r>
       <r>    -3.2328     0.0000    80.0000 </r>
       <r>    -3.1605     0.0000    80.0000 </r>
       <r>    -3.0882     0.0000    80.0000 </r>
       <r>    -3.0159     0.0000    80.0000 </r>
       <r>    -2.9436     0.0000    80.0000 </r>
       <r>    -2.8712     0.0000    80.0000 </r>
       <r>    -2.7989     0.0000    80.0000 </r>
       <r>    -2.7266     0.0000    80.0000 </r>
       <r>    -2.6543     0.0000    80.0000 </r>
       <r>    -2.5820     0.0000    80.0000 </r>
       <r>    -2.5097     0.0000    80.0000 </r>
       <r>    -2.4374     0.0000    80.0000 </r>
       <r>    -2.3650     0.0000    80.0000 </r>
       <r>    -2.2927     0.0000    80.0000 </r>
       <r>    -2.2204     0.0000    80.0000 </r>
       <r>    -2.1481     0.0000    80.0000 </r>
       <r>    -2.0758     0.0000    80.0000 </r>
       <r>    -2.0035     0.0000    80.0000 </r>
       <r>    -1.9312     0.0000    80.0000 </r>
       <r>    -1.8588     0.0000    80.0000 </r>
[...]
       <r>     0.2383     4.6639   100.4390 </r>
       <r>     0.3106    13.8756   101.4351 </r>
       <r>     0.3829    33.7269   103.8568 </r>
       <r>     0.4552    66.6468   108.6433 </r>
       <r>     0.5275   107.5446   116.3687 </r>
       <r>     0.5998   141.8980   126.5636 </r>
       <r>     0.6721   152.6564   137.5331 </r>
       <r>     0.7444   133.0891   147.0977 </r>
       <r>     0.8168    93.3017   153.8038 </r>
       <r>     0.8891    52.1895   157.5553 </r>
       <r>     0.9614    23.1358   159.2185 </r>
       <r>     1.0337     8.0845   159.7997 </r>
       <r>     1.1060     2.2177   159.9592 </r>
       <r>     1.1783     0.4762   159.9934 </r>
       <r>     1.2506     0.0798   159.9992 </r>
       <r>     1.3230     0.0104   159.9999 </r>
       <r>     1.3953     0.0011   160.0000 </r>
       <r>     1.4676     0.0001   160.0000 </r>
       <r>     1.5399     0.0000   160.0000 </r>
       <r>     1.6122     0.0000   160.0000 </r>
       <r>     1.6845     0.0000   160.0000 </r>
       <r>     1.7568     0.0000   160.0000 </r>
       <r>     1.8292     0.0000   160.0000 </r>
       <r>     1.9015     0.0000   160.0000 </r>
       <r>     1.9738     0.0000   160.0000 </r>
       <r>     2.0461     0.0000   160.0000 </r>
       <r>     2.1184     0.0000   160.0000 </r>
       <r>     2.1907     0.0000   160.0000 </r>
       <r>     2.2630     0.0000   160.0000 </r>
       <r>     2.3354     0.0000   160.0000 </r>
       <r>     2.4077     0.0000   160.0000 </r>
       <r>     2.4800     0.0000   160.0000 </r>
       <r>     2.5523     0.0000   160.0000 </r>
       <r>     2.6246     0.0000   160.0000 </r>
       <r>     2.6969     0.0000   160.0000 </r>
      </set>
     </set>
    </array>
   </total>
  </dos>
  <time name="totalsc">    1.98    1.99</time>
  <eigenvalues>
   <array>
    <dimension dim="1">band</dimension>
    <dimension dim="2">kpoint</dimension>
    <dimension dim="3">spin</dimension>
    <field>eigene</field>
    <field>occ</field>
    <set>
     <set comment="spin 1">
      <set comment="kpoint 1">
       <r>  -17.0089    1.0000 </r>
       <r>   -9.3769    1.0000 </r>
       <r>   -9.3467    1.0000 </r>
       <r>   -9.3357    1.0000 </r>
       <r>   -0.2918    0.0000 </r>
       <r>    0.5811    0.0000 </r>
       <r>    0.6808    0.0000 </r>
       <r>    0.7099    0.0000 </r>
      </set>
      <set comment="kpoint 2">
       <r>  -17.0090    1.0000 </r>
       <r>   -9.3769    1.0000 </r>
       <r>   -9.3467    1.0000 </r>
       <r>   -9.3357    1.0000 </r>
       <r>   -0.2903    0.0000 </r>
       <r>    0.5731    0.0000 </r>
       <r>    0.6754    0.0000 </r>
       <r>    0.7080    0.0000 </r>
      </set>
      <set comment="kpoint 3">
       <r>  -17.0090    1.0000 </r>
       <r>   -9.3769    1.0000 </r>
       <r>   -9.3467    1.0000 </r>
       <r>   -9.3358    1.0000 </r>
       <r>   -0.2887    0.0000 </r>
       <r>    0.5715    0.0000 </r>
       <r>    0.6744    0.0000 </r>
       <r>    0.7006    0.0000 </r>
      </set>
      <set comment="kpoint 4">
       <r>  -17.0090    1.0000 </r>
       <r>   -9.3770    1.0000 </r>
       <r>   -9.3467    1.0000 </r>
       <r>   -9.3358    1.0000 </r>
       <r>   -0.2877    0.0000 </r>
       <r>    0.5722    0.0000 </r>
       <r>    0.6725    0.0000 </r>
       <r>    0.6971    0.0000 </r>
      </set>
     </set>
    </set>
   </array>
  </eigenvalues>
  <separator name="orbital magnetization" >
   <v name="MAGDIPOLOUT">      0.00000000      0.00000000      0.00000000</v>
  </separator>
  <dos>
   <i name="efermi">     -8.36659576 </i>
   <total>
    <array>
     <dimension dim="1">gridpoints</dimension>
     <dimension dim="2">spin</dimension>
     <field>energy</field>
     <field>total</field>
     <field>integrated</field>
     <set>
      <set comment="spin 1">
       <r>   -19.0090     0.0000     0.0000 </r>
       <r>   -18.9366     0.0000     0.0000 </r>
       <r>   -18.8642     0.0000     0.0000 </r>
       <r>   -18.7918     0.0000     0.0000 </r>
       <r>   -18.7194     0.0000     0.0000 </r>
       <r>   -18.6470     0.0000     0.0000 </r>
       <r>   -18.5746     0.0000     0.0000 </r>
       <r>   -18.5022     0.0000     0.0000 </r>
       <r>   -18.4298     0.0000     0.0000 </r>
       <r>   -18.3574     0.0000     0.0000 </r>
       <r>   -18.2850     0.0000     0.0000 </r>
       <r>   -18.2126     0.0000     0.0000 </r>
       <r>   -18.1402     0.0000     0.0000 </r>
       <r>   -18.0678     0.0000     0.0000 </r>
       <r>   -17.9955     0.0000     0.0000 </r>
       <r>   -17.9231     0.0000     0.0000 </r>
       <r>   -17.8507     0.0000     0.0000 </r>
       <r>   -17.7783     0.0000     0.0000 </r>
       <r>   -17.7059     0.0000     0.0000 </r>
       <r>   -17.6335     0.0001     0.0000 </r>
       <r>   -17.5611     0.0012     0.0001 </r>
       <r>   -17.4887     0.0083     0.0007 </r>
       <r>   -17.4163     0.0453     0.0040 </r>
       <r>   -17.3439     0.1920     0.0179 </r>
       <r>   -17.2715     0.6291     0.0634 </r>
       <r>   -17.1991     1.5943     0.1788 </r>
       <r>   -17.1267     3.1263     0.4052 </r>
       <r>   -17.0543     4.7436     0.7486 </r>
       <r>   -16.9819     5.5695     1.1518 </r>
       <r>   -16.9095     5.0604     1.5182 </r>
       <r>   -16.8371     3.5579     1.7757 </r>
       <r>   -16.7647     1.9356     1.9159 </r>
       <r>   -16.6923     0.8148     1.9749 </r>
       <r>   -16.6199     0.2653     1.9941 </r>
       <r>   -16.5475     0.0668     1.9989 </r>
       <r>   -16.4751     0.0130     1.9998 </r>
       <r>   -16.4027     0.0020     2.0000 </r>
       <r>   -16.3303     0.0002     2.0000 </r>
       <r>   -16.2579     0.0000     2.0000 </r>
       <r>   -16.1855     0.0000     2.0000 </r>
       <r>   -16.1131     0.0000     2.0000 </r>
       <r>   -16.0408     0.0000     2.0000 </r>
       <r>   -15.9684     0.0000     2.0000 </r>
       <r>   -15.8960     0.0000     2.0000 </r>
       <r>   -15.8236     0.0000     2.0000 </r>
       <r>   -15.7512     0.0000     2.0000 </r>
       <r>   -15.6788     0.0000     2.0000 </r>
       <r>   -15.6064     0.0000     2.0000 </r>
       <r>   -15.5340     0.0000     2.0000 </r>
       <r>   -15.4616     0.0000     2.0000 </r>
       <r>   -15.3892     0.0000     2.0000 </r>
       <r>   -15.3168     0.0000     2.0000 </r>
       <r>   -15.2444     0.0000     2.0000 </r>
       <r>   -15.1720     0.0000     2.0000 </r>
       <r>   -15.0996     0.0000     2.0000 </r>
       <r>   -15.0272     0.0000     2.0000 </r>
       <r>   -14.9548     0.0000     2.0000 </r>
       <r>   -14.8824     0.0000     2.0000 </r>
       <r>   -14.8100     0.0000     2.0000 </r>
       <r>   -14.7376     0.0000     2.0000 </r>
       <r>   -14.6652     0.0000     2.0000 </r>
       <r>   -14.5928     0.0000     2.0000 </r>
       <r>   -14.5204     0.0000     2.0000 </r>
       <r>   -14.4480     0.0000     2.0000 </r>
       <r>   -14.3756     0.0000     2.0000 </r>
       <r>   -14.3032     0.0000     2.0000 </r>
       <r>   -14.2308     0.0000     2.0000 </r>
       <r>   -14.1584     0.0000     2.0000 </r>
       <r>   -14.0860     0.0000     2.0000 </r>
       <r>   -14.0137     0.0000     2.0000 </r>
       <r>   -13.9413     0.0000     2.0000 </r>
       <r>   -13.8689     0.0000     2.0000 </r>
       <r>   -13.7965     0.0000     2.0000 </r>
       <r>   -13.7241     0.0000     2.0000 </r>
       <r>   -13.6517     0.0000     2.0000 </r>
       <r>   -13.5793     0.0000     2.0000 </r>
       <r>   -13.5069     0.0000     2.0000 </r>
       <r>   -13.4345     0.0000     2.0000 </r>
       <r>   -13.3621     0.0000     2.0000 </r>
       <r>   -13.2897     0.0000     2.0000 </r>
       <r>   -13.2173     0.0000     2.0000 </r>
       <r>   -13.1449     0.0000     2.0000 </r>
       <r>   -13.0725     0.0000     2.0000 </r>
       <r>   -13.0001     0.0000     2.0000 </r>
       <r>   -12.9277     0.0000     2.0000 </r>
       <r>   -12.8553     0.0000     2.0000 </r>
       <r>   -12.7829     0.0000     2.0000 </r>
       <r>   -12.7105     0.0000     2.0000 </r>
       <r>   -12.6381     0.0000     2.0000 </r>
       <r>   -12.5657     0.0000     2.0000 </r>
       <r>   -12.4933     0.0000     2.0000 </r>
       <r>   -12.4209     0.0000     2.0000 </r>
       <r>   -12.3485     0.0000     2.0000 </r>
       <r>   -12.2761     0.0000     2.0000 </r>
       <r>   -12.2037     0.0000     2.0000 </r>
       <r>   -12.1313     0.0000     2.0000 </r>
       <r>   -12.0590     0.0000     2.0000 </r>
       <r>   -11.9866     0.0000     2.0000 </r>
       <r>   -11.9142     0.0000     2.0000 </r>
       <r>   -11.8418     0.0000     2.0000 </r>
       <r>   -11.7694     0.0000     2.0000 </r>
       <r>   -11.6970     0.0000     2.0000 </r>
       <r>   -11.6246     0.0000     2.0000 </r>
       <r>   -11.5522     0.0000     2.0000 </r>
       <r>   -11.4798     0.0000     2.0000 </r>
       <r>   -11.4074     0.0000     2.0000 </r>
       <r>   -11.3350     0.0000     2.0000 </r>
       <r>   -11.2626     0.0000     2.0000 </r>
       <r>   -11.1902     0.0000     2.0000 </r>
       <r>   -11.1178     0.0000     2.0000 </r>
       <r>   -11.0454     0.0000     2.0000 </r>
       <r>   -10.9730     0.0000     2.0000 </r>
       <r>   -10.9006     0.0000     2.0000 </r>
       <r>   -10.8282     0.0000     2.0000 </r>
       <r>   -10.7558     0.0000     2.0000 </r>
       <r>   -10.6834     0.0000     2.0000 </r>
       <r>   -10.6110     0.0000     2.0000 </r>
       <r>   -10.5386     0.0000     2.0000 </r>
       <r>   -10.4662     0.0000     2.0000 </r>
       <r>   -10.3938     0.0000     2.0000 </r>
       <r>   -10.3214     0.0000     2.0000 </r>
       <r>   -10.2490     0.0000     2.0000 </r>
       <r>   -10.1766     0.0000     2.0000 </r>
       <r>   -10.1042     0.0000     2.0000 </r>
       <r>   -10.0319     0.0001     2.0000 </r>
       <r>    -9.9595     0.0008     2.0001 </r>
       <r>    -9.8871     0.0066     2.0005 </r>
       <r>    -9.8147     0.0424     2.0036 </r>
       <r>    -9.7423     0.2124     2.0190 </r>
       <r>    -9.6699     0.8257     2.0788 </r>
       <r>    -9.5975     2.4932     2.2593 </r>
       <r>    -9.5251     5.8479     2.6826 </r>
       <r>    -9.4527    10.6557     3.4541 </r>
       <r>    -9.3803    15.0838     4.5461 </r>
       <r>    -9.3079    16.5870     5.7469 </r>
       <r>    -9.2355    14.1682     6.7726 </r>
       <r>    -9.1631     9.3990     7.4531 </r>
       <r>    -9.0907     4.8415     7.8036 </r>
       <r>    -9.0183     1.9360     7.9438 </r>
       <r>    -8.9459     0.6008     7.9873 </r>
       <r>    -8.8735     0.1446     7.9977 </r>
       <r>    -8.8011     0.0270     7.9997 </r>
       <r>    -8.7287     0.0039     8.0000 </r>
       <r>    -8.6563     0.0004     8.0000 </r>
       <r>    -8.5839     0.0000     8.0000 </r>
       <r>    -8.5115     0.0000     8.0000 </r>
       <r>    -8.4391     0.0000     8.0000 </r>
       <r>    -8.3667     0.0000     8.0000 </r>
       <r>    -8.2943     0.0000     8.0000 </r>
       <r>    -8.2219     0.0000     8.0000 </r>
       <r>    -8.1495     0.0000     8.0000 </r>
       <r>    -8.0772     0.0000     8.0000 </r>
       <r>    -8.0048     0.0000     8.0000 </r>
       <r>    -7.9324     0.0000     8.0000 </r>
       <r>    -7.8600     0.0000     8.0000 </r>
       <r>    -7.7876     0.0000     8.0000 </r>
       <r>    -7.7152     0.0000     8.0000 </r>
       <r>    -7.6428     0.0000     8.0000 </r>
       <r>    -7.5704     0.0000     8.0000 </r>
       <r>    -7.4980     0.0000     8.0000 </r>
       <r>    -7.4256     0.0000     8.0000 </r>
       <r>    -7.3532     0.0000     8.0000 </r>
       <r>    -7.2808     0.0000     8.0000 </r>
       <r>    -7.2084     0.0000     8.0000 </r>
       <r>    -7.1360     0.0000     8.0000 </r>
       <r>    -7.0636     0.0000     8.0000 </r>
       <r>    -6.9912     0.0000     8.0000 </r>
       <r>    -6.9188     0.0000     8.0000 </r>
       <r>    -6.8464     0.0000     8.0000 </r>
       <r>    -6.7740     0.0000     8.0000 </r>
       <r>    -6.7016     0.0000     8.0000 </r>
       <r>    -6.6292     0.0000     8.0000 </r>
       <r>    -6.5568     0.0000     8.0000 </r>
       <r>    -6.4844     0.0000     8.0000 </r>
       <r>    -6.4120     0.0000     8.0000 </r>
       <r>    -6.3396     0.0000     8.0000 </r>
       <r>    -6.2672     0.0000     8.0000 </r>
       <r>    -6.1948     0.0000     8.0000 </r>
       <r>    -6.1225     0.0000     8.0000 </r>
       <r>    -6.0501     0.0000     8.0000 </r>
       <r>    -5.9777     0.0000     8.0000 </r>
       <r>    -5.9053     0.0000     8.0000 </r>
       <r>    -5.8329     0.0000     8.0000 </r>
       <r>    -5.7605     0.0000     8.0000 </r>
       <r>    -5.6881     0.0000     8.0000 </r>
       <r>    -5.6157     0.0000     8.0000 </r>
       <r>    -5.5433     0.0000     8.0000 </r>
       <r>    -5.4709     0.0000     8.0000 </r>
       <r>    -5.3985     0.0000     8.0000 </r>
       <r>    -5.3261     0.0000     8.0000 </r>
       <r>    -5.2537     0.0000     8.0000 </r>
       <r>    -5.1813     0.0000     8.0000 </r>
       <r>    -5.1089     0.0000     8.0000 </r>
       <r>    -5.0365     0.0000     8.0000 </r>
       <r>    -4.9641     0.0000     8.0000 </r>
       <r>    -4.8917     0.0000     8.0000 </r>
       <r>    -4.8193     0.0000     8.0000 </r>
       <r>    -4.7469     0.0000     8.0000 </r>
       <r>    -4.6745     0.0000     8.0000 </r>
       <r>    -4.6021     0.0000     8.0000 </r>
       <r>    -4.5297     0.0000     8.0000 </r>
       <r>    -4.4573     0.0000     8.0000 </r>
       <r>    -4.3849     0.0000     8.0000 </r>
       <r>    -4.3125     0.0000     8.0000 </r>
       <r>    -4.2401     0.0000     8.0000 </r>
       <r>    -4.1677     0.0000     8.0000 </r>
       <r>    -4.0954     0.0000     8.0000 </r>
       <r>    -4.0230     0.0000     8.0000 </r>
       <r>    -3.9506     0.0000     8.0000 </r>
       <r>    -3.8782     0.0000     8.0000 </r>
       <r>    -3.8058     0.0000     8.0000 </r>
       <r>    -3.7334     0.0000     8.0000 </r>
       <r>    -3.6610     0.0000     8.0000 </r>
       <r>    -3.5886     0.0000     8.0000 </r>
       <r>    -3.5162     0.0000     8.0000 </r>
       <r>    -3.4438     0.0000     8.0000 </r>
       <r>    -3.3714     0.0000     8.0000 </r>
       <r>    -3.2990     0.0000     8.0000 </r>
       <r>    -3.2266     0.0000     8.0000 </r>
       <r>    -3.1542     0.0000     8.0000 </r>
       <r>    -3.0818     0.0000     8.0000 </r>
       <r>    -3.0094     0.0000     8.0000 </r>
       <r>    -2.9370     0.0000     8.0000 </r>
       <r>    -2.8646     0.0000     8.0000 </r>
       <r>    -2.7922     0.0000     8.0000 </r>
       <r>    -2.7198     0.0000     8.0000 </r>
       <r>    -2.6474     0.0000     8.0000 </r>
       <r>    -2.5750     0.0000     8.0000 </r>
       <r>    -2.5026     0.0000     8.0000 </r>
       <r>    -2.4302     0.0000     8.0000 </r>
       <r>    -2.3578     0.0000     8.0000 </r>
       <r>    -2.2854     0.0000     8.0000 </r>
       <r>    -2.2130     0.0000     8.0000 </r>
       <r>    -2.1407     0.0000     8.0000 </r>
       <r>    -2.0683     0.0000     8.0000 </r>
       <r>    -1.9959     0.0000     8.0000 </r>
       <r>    -1.9235     0.0000     8.0000 </r>
       <r>    -1.8511     0.0000     8.0000 </r>
       <r>    -1.7787     0.0000     8.0000 </r>
       <r>    -1.7063     0.0000     8.0000 </r>
       <r>    -1.6339     0.0000     8.0000 </r>
       <r>    -1.5615     0.0000     8.0000 </r>
       <r>    -1.4891     0.0000     8.0000 </r>
       <r>    -1.4167     0.0000     8.0000 </r>
       <r>    -1.3443     0.0000     8.0000 </r>
       <r>    -1.2719     0.0000     8.0000 </r>
       <r>    -1.1995     0.0000     8.0000 </r>
       <r>    -1.1271     0.0000     8.0000 </r>
       <r>    -1.0547     0.0000     8.0000 </r>
       <r>    -0.9823     0.0000     8.0000 </r>
       <r>    -0.9099     0.0001     8.0000 </r>
       <r>    -0.8375     0.0013     8.0001 </r>
       <r>    -0.7651     0.0092     8.0008 </r>
       <r>    -0.6927     0.0497     8.0044 </r>
       <r>    -0.6203     0.2072     8.0194 </r>
       <r>    -0.5479     0.6686     8.0678 </r>
       <r>    -0.4755     1.6694     8.1886 </r>
       <r>    -0.4031     3.2251     8.4221 </r>
       <r>    -0.3307     4.8212     8.7712 </r>
       <r>    -0.2583     5.5772     9.1749 </r>
       <r>    -0.1859     4.9928     9.5364 </r>
       <r>    -0.1136     3.4588     9.7868 </r>
       <r>    -0.0412     1.8543     9.9210 </r>
       <r>     0.0312     0.7707     9.9768 </r>
       <r>     0.1036     0.2581     9.9955 </r>
       <r>     0.1760     0.1236    10.0045 </r>
       <r>     0.2484     0.2816    10.0249 </r>
       <r>     0.3208     0.9256    10.0919 </r>
       <r>     0.3932     2.5165    10.2740 </r>
       <r>     0.4656     5.4863    10.6712 </r>
       <r>     0.5380     9.6229    11.3679 </r>
       <r>     0.6104    13.6133    12.3535 </r>
       <r>     0.6828    15.5250    13.4774 </r>
       <r>     0.7552    14.2246    14.5072 </r>
       <r>     0.8276    10.4155    15.2613 </r>
       <r>     0.9000     6.0579    15.6998 </r>
       <r>     0.9724     2.7827    15.9013 </r>
       <r>     1.0448     1.0045    15.9740 </r>
       <r>     1.1172     0.2839    15.9946 </r>
       <r>     1.1896     0.0626    15.9991 </r>
       <r>     1.2620     0.0107    15.9999 </r>
       <r>     1.3344     0.0014    16.0000 </r>
       <r>     1.4068     0.0001    16.0000 </r>
       <r>     1.4792     0.0000    16.0000 </r>
       <r>     1.5516     0.0000    16.0000 </r>
       <r>     1.6240     0.0000    16.0000 </r>
       <r>     1.6964     0.0000    16.0000 </r>
       <r>     1.7688     0.0000    16.0000 </r>
       <r>     1.8411     0.0000    16.0000 </r>
       <r>     1.9135     0.0000    16.0000 </r>
       <r>     1.9859     0.0000    16.0000 </r>
       <r>     2.0583     0.0000    16.0000 </r>
       <r>     2.1307     0.0000    16.0000 </r>
       <r>     2.2031     0.0000    16.0000 </r>
       <r>     2.2755     0.0000    16.0000 </r>
       <r>     2.3479     0.0000    16.0000 </r>
       <r>     2.4203     0.0000    16.0000 </r>
       <r>     2.4927     0.0000    16.0000 </r>
       <r>     2.5651     0.0000    16.0000 </r>
       <r>     2.6375     0.0000    16.0000 </r>
       <r>     2.7099     0.0000    16.0000 </r>
      </set>
     </set>
    </array>
   </total>
  </dos>
 </calculation>
 <structure name="finalpos" >
  <crystal>
   <varray name="basis" >
    <v>      10.23329254       0.00000000       0.00000000 </v>
    <v>       0.01573884      10.07328794       0.00000000 </v>
    <v>       0.07095259       0.15835291      10.11213284 </v>
   </varray>
   <i name="volume">   1042.38800177 </i>
   <varray name="rec_basis" >
    <v>       0.09772026      -0.00015268      -0.00068327 </v>
    <v>       0.00000000       0.09927245      -0.00155458 </v>
    <v>       0.00000000       0.00000000       0.09889111 </v>
   </varray>
  </crystal>
  <varray name="positions" >
   <v>       0.53733368       0.40855819       0.36265142 </v>
   <v>       0.39877260       0.48026705       0.43859537 </v>
   <v>       0.55039306       0.56298957       0.44235639 </v>
   <v>       0.52645626       0.41646830       0.53682386 </v>
   <v>       0.50295453       0.46709738       0.44497857 </v>
  </varray>
  <varray name="velocities" >
   <v>      -0.00003412       0.00010077       0.00009786 </v>
   <v>       0.00019311       0.00001443       0.00000419 </v>
   <v>      -0.00015315      -0.00008372      -0.00018313 </v>
   <v>      -0.00012809      -0.00007122      -0.00016950 </v>
   <v>       0.00001018       0.00000331       0.00002086 </v>
  </varray>
 </structure>
</modeling>
