unknown system                          
           1
    10.233293    0.000000    0.000000
     0.015739   10.073288    0.000000
     0.070953    0.158353   10.112133
   H    C 
   4   1
Direct configuration=     1
   0.53810470  0.40694543  0.36065194
   0.39470920  0.48051493  0.43835986
   0.55234814  0.56545962  0.44346965
   0.52779205  0.41585924  0.53983651
   0.50295466  0.46705608  0.44482114
Direct configuration=     2
   0.53807465  0.40700370  0.36072769
   0.39486434  0.48050163  0.43836991
   0.55228228  0.56535935  0.44344758
   0.52775050  0.41589815  0.53972578
   0.50295319  0.46705744  0.44482505
Direct configuration=     3
   0.53801678  0.40711594  0.36087412
   0.39516311  0.48047599  0.43838905
   0.55215515  0.56516718  0.44340306
   0.52767030  0.41597180  0.53951160
   0.50295039  0.46706010  0.44483280
Direct configuration=     4
   0.53793540  0.40727455  0.36108066
   0.39558426  0.48044041  0.43841582
   0.55197466  0.56489769  0.44333661
   0.52755585  0.41607282  0.53920885
   0.50294666  0.46706388  0.44484412
Direct configuration=     5
   0.53783658  0.40746870  0.36133234
   0.39609736  0.48039833  0.43844814
   0.55175204  0.56457155  0.44324901
   0.52741340  0.41619072  0.53883876
   0.50294256  0.46706856  0.44485858
Direct configuration=     6
   0.53772804  0.40768467  0.36161009
   0.39666379  0.48035408  0.43848337
   0.55150157  0.56421496  0.44314130
   0.52725093  0.41631224  0.53842827
   0.50293882  0.46707383  0.44487566
Direct configuration=     7
   0.53761838  0.40790703  0.36189255
   0.39723973  0.48031254  0.43851846
   0.55123937  0.56385738  0.44301479
   0.52707748  0.41642252  0.53800778
   0.50293627  0.46707937  0.44489477
Direct configuration=     8
   0.53751640  0.40811988  0.36215768
   0.39777947  0.48027874  0.43855018
   0.55098220  0.56352917  0.44287103
   0.52690252  0.41650636  0.53760880
   0.50293580  0.46708481  0.44491524
Direct configuration=     9
   0.53743048  0.40830783  0.36238421
   0.39823885  0.48025744  0.43857537
   0.55074635  0.56325942  0.44271189
   0.52673536  0.41654939  0.53726179
   0.50293826  0.46708981  0.44493642
Direct configuration=    10
   0.53736780  0.40845742  0.36255356
   0.39857949  0.48025263  0.43859118
   0.55054621  0.56307329  0.44253951
   0.52658435  0.41653953  0.53699336
   0.50294435  0.46709407  0.44495771
