   5   5   0   0
  0.2041315E+03  0.1010840E-08  0.9916626E-09  0.1018606E-08  0.5000000E-15
  1.000000000000000E-004
  CAR 
 unknown system                          
      2.72102964    -18.93869302  301     -8.32528790      1.00000000
    -18.939  0.0000E+00  0.0000E+00
    -18.866  0.0000E+00  0.0000E+00
    -18.794  0.0000E+00  0.0000E+00
    -18.722  0.0000E+00  0.0000E+00
    -18.650  0.0000E+00  0.0000E+00
    -18.578  0.0000E+00  0.0000E+00
    -18.505  0.0000E+00  0.0000E+00
    -18.433  0.0000E+00  0.0000E+00
    -18.361  0.0000E+00  0.0000E+00
    -18.289  0.0000E+00  0.0000E+00
    -18.217  0.0000E+00  0.0000E+00
    -18.145  0.0000E+00  0.0000E+00
    -18.072  0.1265E-13  0.9104E-15
    -18.000  0.6970E-12  0.5106E-13
    -17.928  0.3002E-10  0.2211E-11
    -17.856  0.1001E-08  0.7427E-10
    -17.784  0.2587E-07  0.1936E-08
    -17.711  0.5179E-06  0.3920E-07
    -17.639  0.8033E-05  0.6172E-06
    -17.567  0.9657E-04  0.7565E-05
    -17.495  0.9001E-03  0.7232E-04
    -17.423  0.6505E-02  0.5403E-03
    -17.350  0.3647E-01  0.3164E-02
    -17.278  0.1586E+00  0.1457E-01
    -17.206  0.5352E+00  0.5308E-01
    -17.134  0.1402E+01  0.1539E+00
    -17.062  0.2850E+01  0.3590E+00
    -16.989  0.4499E+01  0.6826E+00
    -16.917  0.5514E+01  0.1079E+01
    -16.845  0.5248E+01  0.1457E+01
    -16.773  0.3878E+01  0.1736E+01
    -16.701  0.2226E+01  0.1896E+01
    -16.628  0.9918E+00  0.1967E+01
    -16.556  0.3432E+00  0.1992E+01
    -16.484  0.9222E-01  0.1998E+01
    -16.412  0.1924E-01  0.2000E+01
    -16.340  0.3115E-02  0.2000E+01
    -16.267  0.3915E-03  0.2000E+01
    -16.195  0.3819E-04  0.2000E+01
    -16.123  0.2891E-05  0.2000E+01
    -16.051  0.1698E-06  0.2000E+01
    -15.979  0.7733E-08  0.2000E+01
    -15.906  0.2732E-09  0.2000E+01
    -15.834  0.7488E-11  0.2000E+01
    -15.762  0.1589E-12  0.2000E+01
    -15.690  0.2783E-14  0.2000E+01
    -15.618  0.0000E+00  0.2000E+01
    -15.545  0.0000E+00  0.2000E+01
    -15.473  0.0000E+00  0.2000E+01
    -15.401  0.0000E+00  0.2000E+01
    -15.329  0.0000E+00  0.2000E+01
    -15.257  0.0000E+00  0.2000E+01
    -15.184  0.0000E+00  0.2000E+01
    -15.112  0.0000E+00  0.2000E+01
    -15.040  0.0000E+00  0.2000E+01
    -14.968  0.0000E+00  0.2000E+01
    -14.896  0.0000E+00  0.2000E+01
    -14.823  0.0000E+00  0.2000E+01
    -14.751  0.0000E+00  0.2000E+01
    -14.679  0.0000E+00  0.2000E+01
    -14.607  0.0000E+00  0.2000E+01
    -14.535  0.0000E+00  0.2000E+01
    -14.462  0.0000E+00  0.2000E+01
    -14.390  0.0000E+00  0.2000E+01
    -14.318  0.0000E+00  0.2000E+01
    -14.246  0.0000E+00  0.2000E+01
    -14.174  0.0000E+00  0.2000E+01
    -14.101  0.0000E+00  0.2000E+01
    -14.029  0.0000E+00  0.2000E+01
    -13.957  0.0000E+00  0.2000E+01
    -13.885  0.0000E+00  0.2000E+01
    -13.813  0.0000E+00  0.2000E+01
    -13.740  0.0000E+00  0.2000E+01
    -13.668  0.0000E+00  0.2000E+01
    -13.596  0.0000E+00  0.2000E+01
    -13.524  0.0000E+00  0.2000E+01
    -13.452  0.0000E+00  0.2000E+01
    -13.379  0.0000E+00  0.2000E+01
    -13.307  0.0000E+00  0.2000E+01
    -13.235  0.0000E+00  0.2000E+01
    -13.163  0.0000E+00  0.2000E+01
    -13.091  0.0000E+00  0.2000E+01
    -13.018  0.0000E+00  0.2000E+01
    -12.946  0.0000E+00  0.2000E+01
    -12.874  0.0000E+00  0.2000E+01
    -12.802  0.0000E+00  0.2000E+01
    -12.730  0.0000E+00  0.2000E+01
    -12.657  0.0000E+00  0.2000E+01
    -12.585  0.0000E+00  0.2000E+01
    -12.513  0.0000E+00  0.2000E+01
    -12.441  0.0000E+00  0.2000E+01
    -12.369  0.0000E+00  0.2000E+01
    -12.296  0.0000E+00  0.2000E+01
    -12.224  0.0000E+00  0.2000E+01
    -12.152  0.0000E+00  0.2000E+01
    -12.080  0.0000E+00  0.2000E+01
    -12.008  0.0000E+00  0.2000E+01
    -11.935  0.0000E+00  0.2000E+01
    -11.863  0.0000E+00  0.2000E+01
    -11.791  0.0000E+00  0.2000E+01
    -11.719  0.0000E+00  0.2000E+01
    -11.647  0.0000E+00  0.2000E+01
    -11.574  0.0000E+00  0.2000E+01
    -11.502  0.0000E+00  0.2000E+01
    -11.430  0.0000E+00  0.2000E+01
    -11.358  0.0000E+00  0.2000E+01
    -11.286  0.0000E+00  0.2000E+01
    -11.213  0.0000E+00  0.2000E+01
    -11.141  0.0000E+00  0.2000E+01
    -11.069  0.0000E+00  0.2000E+01
    -10.997  0.0000E+00  0.2000E+01
    -10.925  0.0000E+00  0.2000E+01
    -10.852  0.0000E+00  0.2000E+01
    -10.780  0.0000E+00  0.2000E+01
    -10.708  0.0000E+00  0.2000E+01
    -10.636  0.7736E-15  0.2000E+01
    -10.564  0.5100E-13  0.2000E+01
    -10.491  0.2479E-11  0.2000E+01
    -10.419  0.9343E-10  0.2000E+01
    -10.347  0.2738E-08  0.2000E+01
    -10.275  0.6244E-07  0.2000E+01
    -10.203  0.1109E-05  0.2000E+01
    -10.130  0.1535E-04  0.2000E+01
    -10.058  0.1658E-03  0.2000E+01
     -9.986  0.1401E-02  0.2000E+01
     -9.914  0.9281E-02  0.2001E+01
     -9.842  0.4838E-01  0.2004E+01
     -9.769  0.1995E+00  0.2019E+01
     -9.697  0.6558E+00  0.2066E+01
     -9.625  0.1737E+01  0.2191E+01
     -9.553  0.3760E+01  0.2461E+01
     -9.481  0.6751E+01  0.2947E+01
     -9.408  0.1019E+02  0.3680E+01
     -9.336  0.1303E+02  0.4617E+01
     -9.264  0.1408E+02  0.5630E+01
     -9.192  0.1277E+02  0.6549E+01
     -9.120  0.9602E+01  0.7240E+01
     -9.047  0.5916E+01  0.7665E+01
     -8.975  0.2959E+01  0.7878E+01
     -8.903  0.1192E+01  0.7964E+01
     -8.831  0.3846E+00  0.7991E+01
     -8.759  0.9884E-01  0.7998E+01
     -8.686  0.2015E-01  0.8000E+01
     -8.614  0.3246E-02  0.8000E+01
     -8.542  0.4120E-03  0.8000E+01
     -8.470  0.4109E-04  0.8000E+01
     -8.398  0.3212E-05  0.8000E+01
     -8.325  0.1964E-06  0.8000E+01
     -8.253  0.9381E-08  0.8000E+01
     -8.181  0.3496E-09  0.8000E+01
     -8.109  0.1015E-10  0.8000E+01
     -8.037  0.2286E-12  0.8000E+01
     -7.964  0.3714E-14  0.8000E+01
     -7.892  0.0000E+00  0.8000E+01
     -7.820  0.0000E+00  0.8000E+01
     -7.748  0.0000E+00  0.8000E+01
     -7.676  0.0000E+00  0.8000E+01
     -7.603  0.0000E+00  0.8000E+01
     -7.531  0.0000E+00  0.8000E+01
     -7.459  0.0000E+00  0.8000E+01
     -7.387  0.0000E+00  0.8000E+01
     -7.315  0.0000E+00  0.8000E+01
     -7.242  0.0000E+00  0.8000E+01
     -7.170  0.0000E+00  0.8000E+01
     -7.098  0.0000E+00  0.8000E+01
     -7.026  0.0000E+00  0.8000E+01
     -6.954  0.0000E+00  0.8000E+01
     -6.881  0.0000E+00  0.8000E+01
     -6.809  0.0000E+00  0.8000E+01
     -6.737  0.0000E+00  0.8000E+01
     -6.665  0.0000E+00  0.8000E+01
     -6.593  0.0000E+00  0.8000E+01
     -6.520  0.0000E+00  0.8000E+01
     -6.448  0.0000E+00  0.8000E+01
     -6.376  0.0000E+00  0.8000E+01
     -6.304  0.0000E+00  0.8000E+01
     -6.232  0.0000E+00  0.8000E+01
     -6.159  0.0000E+00  0.8000E+01
     -6.087  0.0000E+00  0.8000E+01
     -6.015  0.0000E+00  0.8000E+01
     -5.943  0.0000E+00  0.8000E+01
     -5.871  0.0000E+00  0.8000E+01
     -5.798  0.0000E+00  0.8000E+01
     -5.726  0.0000E+00  0.8000E+01
     -5.654  0.0000E+00  0.8000E+01
     -5.582  0.0000E+00  0.8000E+01
     -5.510  0.0000E+00  0.8000E+01
     -5.437  0.0000E+00  0.8000E+01
     -5.365  0.0000E+00  0.8000E+01
     -5.293  0.0000E+00  0.8000E+01
     -5.221  0.0000E+00  0.8000E+01
     -5.149  0.0000E+00  0.8000E+01
     -5.076  0.0000E+00  0.8000E+01
     -5.004  0.0000E+00  0.8000E+01
     -4.932  0.0000E+00  0.8000E+01
     -4.860  0.0000E+00  0.8000E+01
     -4.788  0.0000E+00  0.8000E+01
     -4.715  0.0000E+00  0.8000E+01
     -4.643  0.0000E+00  0.8000E+01
     -4.571  0.0000E+00  0.8000E+01
     -4.499  0.0000E+00  0.8000E+01
     -4.427  0.0000E+00  0.8000E+01
     -4.354  0.0000E+00  0.8000E+01
     -4.282  0.0000E+00  0.8000E+01
     -4.210  0.0000E+00  0.8000E+01
     -4.138  0.0000E+00  0.8000E+01
     -4.066  0.0000E+00  0.8000E+01
     -3.993  0.0000E+00  0.8000E+01
     -3.921  0.0000E+00  0.8000E+01
     -3.849  0.0000E+00  0.8000E+01
     -3.777  0.0000E+00  0.8000E+01
     -3.705  0.0000E+00  0.8000E+01
     -3.632  0.0000E+00  0.8000E+01
     -3.560  0.0000E+00  0.8000E+01
     -3.488  0.0000E+00  0.8000E+01
     -3.416  0.0000E+00  0.8000E+01
     -3.344  0.0000E+00  0.8000E+01
     -3.271  0.0000E+00  0.8000E+01
     -3.199  0.0000E+00  0.8000E+01
     -3.127  0.0000E+00  0.8000E+01
     -3.055  0.0000E+00  0.8000E+01
     -2.983  0.0000E+00  0.8000E+01
     -2.910  0.0000E+00  0.8000E+01
     -2.838  0.0000E+00  0.8000E+01
     -2.766  0.0000E+00  0.8000E+01
     -2.694  0.0000E+00  0.8000E+01
     -2.622  0.0000E+00  0.8000E+01
     -2.550  0.0000E+00  0.8000E+01
     -2.477  0.0000E+00  0.8000E+01
     -2.405  0.0000E+00  0.8000E+01
     -2.333  0.0000E+00  0.8000E+01
     -2.261  0.0000E+00  0.8000E+01
     -2.189  0.0000E+00  0.8000E+01
     -2.116  0.0000E+00  0.8000E+01
     -2.044  0.0000E+00  0.8000E+01
     -1.972  0.0000E+00  0.8000E+01
     -1.900  0.0000E+00  0.8000E+01
     -1.828  0.0000E+00  0.8000E+01
     -1.755  0.0000E+00  0.8000E+01
     -1.683  0.0000E+00  0.8000E+01
     -1.611  0.0000E+00  0.8000E+01
     -1.539  0.0000E+00  0.8000E+01
     -1.467  0.7263E-14  0.8000E+01
     -1.394  0.4058E-12  0.8000E+01
     -1.322  0.1779E-10  0.8000E+01
     -1.250  0.6058E-09  0.8000E+01
     -1.178  0.1602E-07  0.8000E+01
     -1.106  0.3289E-06  0.8000E+01
     -1.033  0.5248E-05  0.8000E+01
     -0.961  0.6505E-04  0.8000E+01
     -0.889  0.6267E-03  0.8000E+01
     -0.817  0.4692E-02  0.8000E+01
     -0.745  0.2731E-01  0.8002E+01
     -0.672  0.1236E+00  0.8011E+01
     -0.600  0.4348E+00  0.8043E+01
     -0.528  0.1190E+01  0.8128E+01
     -0.456  0.2532E+01  0.8310E+01
     -0.384  0.4189E+01  0.8611E+01
     -0.311  0.5390E+01  0.8999E+01
     -0.239  0.5393E+01  0.9387E+01
     -0.167  0.4196E+01  0.9689E+01
     -0.095  0.2538E+01  0.9872E+01
     -0.023  0.1194E+01  0.9957E+01
      0.050  0.4400E+00  0.9989E+01
      0.122  0.1481E+00  0.1000E+02
      0.194  0.1454E+00  0.1001E+02
      0.266  0.4582E+00  0.1004E+02
      0.338  0.1387E+01  0.1014E+02
      0.411  0.3401E+01  0.1039E+02
      0.483  0.6741E+01  0.1087E+02
      0.555  0.1086E+02  0.1165E+02
      0.627  0.1427E+02  0.1268E+02
      0.699  0.1525E+02  0.1378E+02
      0.772  0.1322E+02  0.1473E+02
      0.844  0.9217E+01  0.1539E+02
      0.916  0.5134E+01  0.1576E+02
      0.988  0.2269E+01  0.1592E+02
      1.060  0.7916E+00  0.1598E+02
      1.133  0.2170E+00  0.1600E+02
      1.205  0.4659E-01  0.1600E+02
      1.277  0.7818E-02  0.1600E+02
      1.349  0.1023E-02  0.1600E+02
      1.421  0.1043E-03  0.1600E+02
      1.494  0.8281E-05  0.1600E+02
      1.566  0.5111E-06  0.1600E+02
      1.638  0.2451E-07  0.1600E+02
      1.710  0.9131E-09  0.1600E+02
      1.782  0.2640E-10  0.1600E+02
      1.855  0.5930E-12  0.1600E+02
      1.927  0.9567E-14  0.1600E+02
      1.999  0.0000E+00  0.1600E+02
      2.071  0.0000E+00  0.1600E+02
      2.143  0.0000E+00  0.1600E+02
      2.216  0.0000E+00  0.1600E+02
      2.288  0.0000E+00  0.1600E+02
      2.360  0.0000E+00  0.1600E+02
      2.432  0.0000E+00  0.1600E+02
      2.504  0.0000E+00  0.1600E+02
      2.577  0.0000E+00  0.1600E+02
      2.649  0.0000E+00  0.1600E+02
      2.721  0.0000E+00  0.1600E+02
      2.68457940    -18.94415066  301     -8.34593212      1.00000000
    -18.944  0.0000E+00  0.0000E+00
    -18.872  0.0000E+00  0.0000E+00
    -18.800  0.0000E+00  0.0000E+00
    -18.728  0.0000E+00  0.0000E+00
    -18.656  0.0000E+00  0.0000E+00
    -18.584  0.0000E+00  0.0000E+00
    -18.512  0.0000E+00  0.0000E+00
    -18.439  0.0000E+00  0.0000E+00
    -18.367  0.0000E+00  0.0000E+00
    -18.295  0.0000E+00  0.0000E+00
    -18.223  0.0000E+00  0.0000E+00
    -18.151  0.0000E+00  0.0000E+00
    -18.079  0.1386E-14  0.9992E-16
    -18.007  0.7757E-13  0.5693E-14
    -17.935  0.3343E-11  0.2467E-12
    -17.863  0.1115E-09  0.8283E-11
    -17.791  0.2876E-08  0.2156E-09
    -17.719  0.5743E-07  0.4356E-08
    -17.646  0.8877E-06  0.6835E-07
    -17.574  0.1062E-04  0.8343E-06
    -17.502  0.9847E-04  0.7933E-05
    -17.430  0.7070E-03  0.5890E-04
    -17.358  0.3933E-02  0.3425E-03
    -17.286  0.1695E-01  0.1565E-02
    -17.214  0.5665E-01  0.5649E-02
    -17.142  0.1467E+00  0.1623E-01
    -17.070  0.2947E+00  0.3747E-01
    -16.998  0.4588E+00  0.7055E-01
    -16.925  0.5540E+00  0.1105E+00
    -16.853  0.5187E+00  0.1479E+00
    -16.781  0.3766E+00  0.1750E+00
    -16.709  0.2120E+00  0.1903E+00
    -16.637  0.9255E-01  0.1970E+00
    -16.565  0.3132E-01  0.1993E+00
    -16.493  0.8215E-02  0.1999E+00
    -16.421  0.1670E-02  0.2000E+00
    -16.349  0.2631E-03  0.2000E+00
    -16.277  0.3210E-04  0.2000E+00
    -16.205  0.3034E-05  0.2000E+00
    -16.132  0.2221E-06  0.2000E+00
    -16.060  0.1259E-07  0.2000E+00
    -15.988  0.5520E-09  0.2000E+00
    -15.916  0.1873E-10  0.2000E+00
    -15.844  0.4919E-12  0.2000E+00
    -15.772  0.1016E-13  0.2000E+00
    -15.700  0.0000E+00  0.2000E+00
    -15.628  0.0000E+00  0.2000E+00
    -15.556  0.0000E+00  0.2000E+00
    -15.484  0.0000E+00  0.2000E+00
    -15.411  0.0000E+00  0.2000E+00
    -15.339  0.0000E+00  0.2000E+00
    -15.267  0.0000E+00  0.2000E+00
    -15.195  0.0000E+00  0.2000E+00
    -15.123  0.0000E+00  0.2000E+00
    -15.051  0.0000E+00  0.2000E+00
    -14.979  0.0000E+00  0.2000E+00
    -14.907  0.0000E+00  0.2000E+00
    -14.835  0.0000E+00  0.2000E+00
    -14.763  0.0000E+00  0.2000E+00
    -14.691  0.0000E+00  0.2000E+00
    -14.618  0.0000E+00  0.2000E+00
    -14.546  0.0000E+00  0.2000E+00
    -14.474  0.0000E+00  0.2000E+00
    -14.402  0.0000E+00  0.2000E+00
    -14.330  0.0000E+00  0.2000E+00
    -14.258  0.0000E+00  0.2000E+00
    -14.186  0.0000E+00  0.2000E+00
    -14.114  0.0000E+00  0.2000E+00
    -14.042  0.0000E+00  0.2000E+00
    -13.970  0.0000E+00  0.2000E+00
    -13.897  0.0000E+00  0.2000E+00
    -13.825  0.0000E+00  0.2000E+00
    -13.753  0.0000E+00  0.2000E+00
    -13.681  0.0000E+00  0.2000E+00
    -13.609  0.0000E+00  0.2000E+00
    -13.537  0.0000E+00  0.2000E+00
    -13.465  0.0000E+00  0.2000E+00
    -13.393  0.0000E+00  0.2000E+00
    -13.321  0.0000E+00  0.2000E+00
    -13.249  0.0000E+00  0.2000E+00
    -13.176  0.0000E+00  0.2000E+00
    -13.104  0.0000E+00  0.2000E+00
    -13.032  0.0000E+00  0.2000E+00
    -12.960  0.0000E+00  0.2000E+00
    -12.888  0.0000E+00  0.2000E+00
    -12.816  0.0000E+00  0.2000E+00
    -12.744  0.0000E+00  0.2000E+00
    -12.672  0.0000E+00  0.2000E+00
    -12.600  0.0000E+00  0.2000E+00
    -12.528  0.0000E+00  0.2000E+00
    -12.456  0.0000E+00  0.2000E+00
    -12.383  0.0000E+00  0.2000E+00
    -12.311  0.0000E+00  0.2000E+00
    -12.239  0.0000E+00  0.2000E+00
    -12.167  0.0000E+00  0.2000E+00
    -12.095  0.0000E+00  0.2000E+00
    -12.023  0.0000E+00  0.2000E+00
    -11.951  0.0000E+00  0.2000E+00
    -11.879  0.0000E+00  0.2000E+00
    -11.807  0.0000E+00  0.2000E+00
    -11.735  0.0000E+00  0.2000E+00
    -11.662  0.0000E+00  0.2000E+00
    -11.590  0.0000E+00  0.2000E+00
    -11.518  0.0000E+00  0.2000E+00
    -11.446  0.0000E+00  0.2000E+00
    -11.374  0.0000E+00  0.2000E+00
    -11.302  0.0000E+00  0.2000E+00
    -11.230  0.0000E+00  0.2000E+00
    -11.158  0.0000E+00  0.2000E+00
    -11.086  0.0000E+00  0.2000E+00
    -11.014  0.0000E+00  0.2000E+00
    -10.942  0.0000E+00  0.2000E+00
    -10.869  0.0000E+00  0.2000E+00
    -10.797  0.0000E+00  0.2000E+00
    -10.725  0.0000E+00  0.2000E+00
    -10.653  0.0000E+00  0.2000E+00
    -10.581  0.0000E+00  0.2000E+00
    -10.509  0.1540E-15  0.2000E+00
    -10.437  0.1686E-13  0.2000E+00
    -10.365  0.8405E-12  0.2000E+00
    -10.293  0.3259E-10  0.2000E+00
    -10.221  0.9798E-09  0.2000E+00
    -10.148  0.2285E-07  0.2000E+00
    -10.076  0.4134E-06  0.2000E+00
    -10.004  0.5805E-05  0.2000E+00
     -9.932  0.6330E-04  0.2000E+00
     -9.860  0.5361E-03  0.2000E+00
     -9.788  0.3529E-02  0.2003E+00
     -9.716  0.1806E-01  0.2016E+00
     -9.644  0.7183E-01  0.2068E+00
     -9.572  0.2223E+00  0.2228E+00
     -9.500  0.5353E+00  0.2614E+00
     -9.428  0.1003E+01  0.3337E+00
     -9.355  0.1463E+01  0.4392E+00
     -9.283  0.1661E+01  0.5590E+00
     -9.211  0.1469E+01  0.6649E+00
     -9.139  0.1011E+01  0.7377E+00
     -9.067  0.5416E+00  0.7768E+00
     -8.995  0.2259E+00  0.7931E+00
     -8.923  0.7332E-01  0.7984E+00
     -8.851  0.1852E-01  0.7997E+00
     -8.779  0.3640E-02  0.8000E+00
     -8.707  0.5562E-03  0.8000E+00
     -8.634  0.6609E-04  0.8000E+00
     -8.562  0.6103E-05  0.8000E+00
     -8.490  0.4379E-06  0.8000E+00
     -8.418  0.2440E-07  0.8000E+00
     -8.346  0.1055E-08  0.8000E+00
     -8.274  0.3542E-10  0.8000E+00
     -8.202  0.9219E-12  0.8000E+00
     -8.130  0.1910E-13  0.8000E+00
     -8.058  0.0000E+00  0.8000E+00
     -7.986  0.0000E+00  0.8000E+00
     -7.913  0.0000E+00  0.8000E+00
     -7.841  0.0000E+00  0.8000E+00
     -7.769  0.0000E+00  0.8000E+00
     -7.697  0.0000E+00  0.8000E+00
     -7.625  0.0000E+00  0.8000E+00
     -7.553  0.0000E+00  0.8000E+00
     -7.481  0.0000E+00  0.8000E+00
     -7.409  0.0000E+00  0.8000E+00
     -7.337  0.0000E+00  0.8000E+00
     -7.265  0.0000E+00  0.8000E+00
     -7.193  0.0000E+00  0.8000E+00
     -7.120  0.0000E+00  0.8000E+00
     -7.048  0.0000E+00  0.8000E+00
     -6.976  0.0000E+00  0.8000E+00
     -6.904  0.0000E+00  0.8000E+00
     -6.832  0.0000E+00  0.8000E+00
     -6.760  0.0000E+00  0.8000E+00
     -6.688  0.0000E+00  0.8000E+00
     -6.616  0.0000E+00  0.8000E+00
     -6.544  0.0000E+00  0.8000E+00
     -6.472  0.0000E+00  0.8000E+00
     -6.399  0.0000E+00  0.8000E+00
     -6.327  0.0000E+00  0.8000E+00
     -6.255  0.0000E+00  0.8000E+00
     -6.183  0.0000E+00  0.8000E+00
     -6.111  0.0000E+00  0.8000E+00
     -6.039  0.0000E+00  0.8000E+00
     -5.967  0.0000E+00  0.8000E+00
     -5.895  0.0000E+00  0.8000E+00
     -5.823  0.0000E+00  0.8000E+00
     -5.751  0.0000E+00  0.8000E+00
     -5.679  0.0000E+00  0.8000E+00
     -5.606  0.0000E+00  0.8000E+00
     -5.534  0.0000E+00  0.8000E+00
     -5.462  0.0000E+00  0.8000E+00
     -5.390  0.0000E+00  0.8000E+00
     -5.318  0.0000E+00  0.8000E+00
     -5.246  0.0000E+00  0.8000E+00
     -5.174  0.0000E+00  0.8000E+00
     -5.102  0.0000E+00  0.8000E+00
     -5.030  0.0000E+00  0.8000E+00
     -4.958  0.0000E+00  0.8000E+00
     -4.885  0.0000E+00  0.8000E+00
     -4.813  0.0000E+00  0.8000E+00
     -4.741  0.0000E+00  0.8000E+00
     -4.669  0.0000E+00  0.8000E+00
     -4.597  0.0000E+00  0.8000E+00
     -4.525  0.0000E+00  0.8000E+00
     -4.453  0.0000E+00  0.8000E+00
     -4.381  0.0000E+00  0.8000E+00
     -4.309  0.0000E+00  0.8000E+00
     -4.237  0.0000E+00  0.8000E+00
     -4.165  0.0000E+00  0.8000E+00
     -4.092  0.0000E+00  0.8000E+00
     -4.020  0.0000E+00  0.8000E+00
     -3.948  0.0000E+00  0.8000E+00
     -3.876  0.0000E+00  0.8000E+00
     -3.804  0.0000E+00  0.8000E+00
     -3.732  0.0000E+00  0.8000E+00
     -3.660  0.0000E+00  0.8000E+00
     -3.588  0.0000E+00  0.8000E+00
     -3.516  0.0000E+00  0.8000E+00
     -3.444  0.0000E+00  0.8000E+00
     -3.371  0.0000E+00  0.8000E+00
     -3.299  0.0000E+00  0.8000E+00
     -3.227  0.0000E+00  0.8000E+00
     -3.155  0.0000E+00  0.8000E+00
     -3.083  0.0000E+00  0.8000E+00
     -3.011  0.0000E+00  0.8000E+00
     -2.939  0.0000E+00  0.8000E+00
     -2.867  0.0000E+00  0.8000E+00
     -2.795  0.0000E+00  0.8000E+00
     -2.723  0.0000E+00  0.8000E+00
     -2.651  0.0000E+00  0.8000E+00
     -2.578  0.0000E+00  0.8000E+00
     -2.506  0.0000E+00  0.8000E+00
     -2.434  0.0000E+00  0.8000E+00
     -2.362  0.0000E+00  0.8000E+00
     -2.290  0.0000E+00  0.8000E+00
     -2.218  0.0000E+00  0.8000E+00
     -2.146  0.0000E+00  0.8000E+00
     -2.074  0.0000E+00  0.8000E+00
     -2.002  0.0000E+00  0.8000E+00
     -1.930  0.0000E+00  0.8000E+00
     -1.857  0.0000E+00  0.8000E+00
     -1.785  0.0000E+00  0.8000E+00
     -1.713  0.0000E+00  0.8000E+00
     -1.641  0.0000E+00  0.8000E+00
     -1.569  0.0000E+00  0.8000E+00
     -1.497  0.3850E-16  0.8000E+00
     -1.425  0.4081E-14  0.8000E+00
     -1.353  0.2111E-12  0.8000E+00
     -1.281  0.8505E-11  0.8000E+00
     -1.209  0.2651E-09  0.8000E+00
     -1.136  0.6397E-08  0.8000E+00
     -1.064  0.1195E-06  0.8000E+00
     -0.992  0.1727E-05  0.8000E+00
     -0.920  0.1934E-04  0.8000E+00
     -0.848  0.1678E-03  0.8000E+00
     -0.776  0.1127E-02  0.8001E+00
     -0.704  0.5870E-02  0.8005E+00
     -0.632  0.2369E-01  0.8022E+00
     -0.560  0.7412E-01  0.8076E+00
     -0.488  0.1798E+00  0.8205E+00
     -0.416  0.3382E+00  0.8449E+00
     -0.343  0.4933E+00  0.8805E+00
     -0.271  0.5580E+00  0.9207E+00
     -0.199  0.4895E+00  0.9560E+00
     -0.127  0.3330E+00  0.9800E+00
     -0.055  0.1757E+00  0.9927E+00
      0.017  0.7211E-01  0.9979E+00
      0.089  0.2434E-01  0.9996E+00
      0.161  0.1354E-01  0.1001E+01
      0.233  0.3335E-01  0.1003E+01
      0.305  0.1046E+00  0.1011E+01
      0.378  0.2711E+00  0.1030E+01
      0.450  0.5689E+00  0.1071E+01
      0.522  0.9716E+00  0.1141E+01
      0.594  0.1353E+01  0.1239E+01
      0.666  0.1535E+01  0.1349E+01
      0.738  0.1408E+01  0.1451E+01
      0.810  0.1037E+01  0.1526E+01
      0.882  0.6083E+00  0.1570E+01
      0.954  0.2820E+00  0.1590E+01
      1.026  0.1028E+00  0.1597E+01
      1.098  0.2931E-01  0.1599E+01
      1.171  0.6523E-02  0.1600E+01
      1.243  0.1130E-02  0.1600E+01
      1.315  0.1523E-03  0.1600E+01
      1.387  0.1593E-04  0.1600E+01
      1.459  0.1294E-05  0.1600E+01
      1.531  0.8146E-07  0.1600E+01
      1.603  0.3976E-08  0.1600E+01
      1.675  0.1503E-09  0.1600E+01
      1.747  0.4403E-11  0.1600E+01
      1.819  0.9979E-13  0.1600E+01
      1.892  0.1771E-14  0.1600E+01
      1.964  0.0000E+00  0.1600E+01
      2.036  0.0000E+00  0.1600E+01
      2.108  0.0000E+00  0.1600E+01
      2.180  0.0000E+00  0.1600E+01
      2.252  0.0000E+00  0.1600E+01
      2.324  0.0000E+00  0.1600E+01
      2.396  0.0000E+00  0.1600E+01
      2.468  0.0000E+00  0.1600E+01
      2.540  0.0000E+00  0.1600E+01
      2.612  0.0000E+00  0.1600E+01
      2.685  0.0000E+00  0.1600E+01
