    5    5   10    1
  0.2041315E+03  0.1010840E-08  0.9916625E-09  0.1018606E-08  0.5000000E-15
  1.000000000000000E-004
  CAR 
 unknown system                          
      8      4      8
 
  0.2500000E+00  0.2500000E+00  0.2500000E+00  0.2500000E+00
    1      -16.944141   1.000000
    2       -9.339594   1.000000
    3       -9.320831   1.000000
    4       -9.295935   1.000000
    5       -0.306204   0.000000
    6        0.536407   0.000000
    7        0.667997   0.000000
    8        0.681632   0.000000
 
 -0.2500000E+00  0.2500000E+00  0.2500000E+00  0.2500000E+00
    1      -16.944151   1.000000
    2       -9.339695   1.000000
    3       -9.320812   1.000000
    4       -9.295985   1.000000
    5       -0.308679   0.000000
    6        0.552313   0.000000
    7        0.660863   0.000000
    8        0.682341   0.000000
 
  0.2500000E+00 -0.2500000E+00  0.2500000E+00  0.2500000E+00
    1      -16.944129   1.000000
    2       -9.339710   1.000000
    3       -9.320874   1.000000
    4       -9.295954   1.000000
    5       -0.305894   0.000000
    6        0.533084   0.000000
    7        0.662742   0.000000
    8        0.684579   0.000000
 
 -0.2500000E+00 -0.2500000E+00  0.2500000E+00  0.2500000E+00
    1      -16.944099   1.000000
    2       -9.339574   1.000000
    3       -9.320736   1.000000
    4       -9.295907   1.000000
    5       -0.313168   0.000000
    6        0.573629   0.000000
    7        0.671367   0.000000
    8        0.683252   0.000000
