       N       E                     dE             d eps       ncg     rms          rms(c)
DAV:   1     0.117545012738E+02    0.11755E+02   -0.19831E+03    96   0.406E+02
DAV:   2    -0.230860175457E+02   -0.34841E+02   -0.34841E+02    64   0.112E+02
DAV:   3    -0.272519456907E+02   -0.41659E+01   -0.41659E+01    64   0.438E+01
DAV:   4    -0.274282997035E+02   -0.17635E+00   -0.17635E+00   128   0.971E+00
DAV:   5    -0.274283664632E+02   -0.66760E-04   -0.66760E-04   112   0.200E-01    0.856E+00
RMM:   6    -0.246352264144E+02    0.27931E+01   -0.51600E+00    64   0.138E+01    0.423E+00
RMM:   7    -0.241609211669E+02    0.47431E+00   -0.11346E+00    64   0.614E+00    0.225E+00
RMM:   8    -0.240161423616E+02    0.14478E+00   -0.16223E-01    64   0.286E+00    0.227E-01
RMM:   9    -0.240105733406E+02    0.55690E-02   -0.10849E-02    64   0.689E-01    0.194E-01
RMM:  10    -0.240042669451E+02    0.63064E-02   -0.24568E-02    64   0.851E-01    0.274E-01
RMM:  11    -0.240050477880E+02   -0.78084E-03   -0.84470E-03    64   0.569E-01    0.869E-02
RMM:  12    -0.240145253966E+02   -0.94776E-02   -0.33580E-03    64   0.356E-01    0.123E-01
RMM:  13    -0.240150158851E+02   -0.49049E-03   -0.95055E-04    64   0.170E-01    0.498E-02
RMM:  14    -0.240179089342E+02   -0.28930E-02   -0.16098E-03    64   0.245E-01    0.390E-02
RMM:  15    -0.240180953629E+02   -0.18643E-03   -0.51891E-05    64   0.478E-02    0.194E-02
RMM:  16    -0.240183172581E+02   -0.22190E-03   -0.22169E-04    64   0.880E-02    0.152E-02
RMM:  17    -0.240183343012E+02   -0.17043E-04   -0.36550E-05    64   0.350E-02    0.236E-03
RMM:  18    -0.240183495832E+02   -0.15282E-04   -0.36270E-06    60   0.140E-02    0.164E-03
RMM:  19    -0.240183517079E+02   -0.21247E-05   -0.18188E-07    48   0.373E-03    0.128E-03
RMM:  20    -0.240183533109E+02   -0.16030E-05   -0.40416E-07    48   0.387E-03    0.283E-04
RMM:  21    -0.240183537426E+02   -0.43167E-06   -0.42490E-08    44   0.186E-03
    1 T=     0. E= -.24018227E+02 F= -.24018354E+02 E0= -.24018354E+02  EK= 0.12675E-03 SP= 0.00E+00 SK= 0.00E+00
       N       E                     dE             d eps       ncg     rms          rms(c)
DAV:   1    -0.240193364179E+02   -0.98311E-03   -0.10879E-03    80   0.302E-01    0.168E-02
RMM:   2    -0.240193278338E+02    0.85840E-05   -0.22386E-05    64   0.330E-02    0.735E-03
RMM:   3    -0.240193280047E+02   -0.17085E-06   -0.14319E-05    64   0.224E-02    0.336E-03
RMM:   4    -0.240193279454E+02    0.59257E-07   -0.38615E-07    48   0.504E-03
    2 T=     2. E= -.24018243E+02 F= -.24019328E+02 E0= -.24019328E+02  EK= 0.10847E-02 SP= 0.00E+00 SK= 0.00E+00
       N       E                     dE             d eps       ncg     rms          rms(c)
DAV:   1    -0.240210374037E+02   -0.17094E-02   -0.84567E-04    72   0.281E-01    0.305E-03
RMM:   2    -0.240210383559E+02   -0.95226E-06   -0.10021E-05    64   0.300E-02    0.245E-03
RMM:   3    -0.240210384150E+02   -0.59085E-07   -0.55303E-07    48   0.637E-03    0.116E-03
RMM:   4    -0.240210387007E+02   -0.28564E-06   -0.43547E-07    48   0.518E-03
    3 T=     5. E= -.24018270E+02 F= -.24021039E+02 E0= -.24021039E+02  EK= 0.27692E-02 SP= 0.00E+00 SK= 0.00E+00
       N       E                     dE             d eps       ncg     rms          rms(c)
DAV:   1    -0.240230923364E+02   -0.20539E-02   -0.18690E-04    64   0.820E-02    0.147E-02
RMM:   2    -0.240230852789E+02    0.70576E-05   -0.27480E-05    64   0.358E-02    0.469E-03
RMM:   3    -0.240230858077E+02   -0.52890E-06   -0.95780E-06    64   0.196E-02    0.125E-03
RMM:   4    -0.240230861586E+02   -0.35083E-06   -0.28260E-07    48   0.471E-03
    4 T=     9. E= -.24018300E+02 F= -.24023086E+02 E0= -.24023086E+02  EK= 0.47865E-02 SP= 0.00E+00 SK= 0.00E+00
       N       E                     dE             d eps       ncg     rms          rms(c)
DAV:   1    -0.240249942315E+02   -0.19084E-02   -0.21057E-04    64   0.776E-02    0.147E-03
RMM:   2    -0.240249960573E+02   -0.18258E-05   -0.30280E-06    57   0.158E-02    0.101E-03
RMM:   3    -0.240249970082E+02   -0.95086E-06   -0.23398E-07    48   0.475E-03    0.884E-04
RMM:   4    -0.240250007968E+02   -0.37886E-05   -0.48306E-07    48   0.461E-03    0.738E-04
RMM:   5    -0.240250008269E+02   -0.30040E-07   -0.40019E-08    43   0.210E-03
    5 T=    13. E= -.24018326E+02 F= -.24025001E+02 E0= -.24025001E+02  EK= 0.66752E-02 SP= 0.00E+00 SK= 0.00E+00
       N       E                     dE             d eps       ncg     rms          rms(c)
DAV:   1    -0.240263817713E+02   -0.13810E-02   -0.31088E-04    64   0.924E-02    0.714E-03
RMM:   2    -0.240263812554E+02    0.51582E-06   -0.68109E-06    64   0.230E-02    0.380E-03
RMM:   3    -0.240263825826E+02   -0.13271E-05   -0.71483E-06    61   0.156E-02    0.191E-03
RMM:   4    -0.240263825214E+02    0.61169E-07   -0.41107E-07    48   0.471E-03
    6 T=    16. E= -.24018345E+02 F= -.24026383E+02 E0= -.24026383E+02  EK= 0.80374E-02 SP= 0.00E+00 SK= 0.00E+00
       N       E                     dE             d eps       ncg     rms          rms(c)
DAV:   1    -0.240269983870E+02   -0.61580E-03   -0.25284E-04    64   0.869E-02    0.240E-03
RMM:   2    -0.240270000341E+02   -0.16470E-05   -0.15693E-06    48   0.115E-02    0.111E-03
RMM:   3    -0.240270019864E+02   -0.19524E-05   -0.61918E-07    48   0.608E-03    0.309E-04
RMM:   4    -0.240270026030E+02   -0.61664E-06   -0.10127E-07    48   0.288E-03
    7 T=    17. E= -.24018349E+02 F= -.24027003E+02 E0= -.24027003E+02  EK= 0.86541E-02 SP= 0.00E+00 SK= 0.00E+00
       N       E                     dE             d eps       ncg     rms          rms(c)
DAV:   1    -0.240268596884E+02    0.14230E-03   -0.21390E-04    64   0.855E-02    0.415E-03
RMM:   2    -0.240268616102E+02   -0.19218E-05   -0.29810E-06    60   0.154E-02    0.183E-03
RMM:   3    -0.240268645715E+02   -0.29613E-05   -0.11845E-06    48   0.785E-03    0.473E-04
RMM:   4    -0.240268658607E+02   -0.12891E-05   -0.14590E-07    48   0.382E-03    0.407E-04
RMM:   5    -0.240268673682E+02   -0.15075E-05   -0.90958E-09    36   0.169E-03    0.229E-04
RMM:   6    -0.240268718817E+02   -0.45135E-05   -0.21636E-07    44   0.263E-03    0.664E-04
RMM:   7    -0.240268717939E+02    0.87842E-07    0.00000E+00    32   0.124E-03
    8 T=    17. E= -.24018338E+02 F= -.24026872E+02 E0= -.24026872E+02  EK= 0.85336E-02 SP= 0.00E+00 SK= 0.00E+00
       N       E                     dE             d eps       ncg     rms          rms(c)
DAV:   1    -0.240262151863E+02    0.65670E-03   -0.17935E-04    64   0.822E-02    0.299E-03
RMM:   2    -0.240262163158E+02   -0.11295E-05   -0.28947E-06    60   0.155E-02    0.230E-03
RMM:   3    -0.240262177379E+02   -0.14220E-05   -0.22797E-06    52   0.968E-03    0.992E-04
RMM:   4    -0.240262176598E+02    0.78054E-07   -0.18820E-07    48   0.365E-03
    9 T=    15. E= -.24018316E+02 F= -.24026218E+02 E0= -.24026218E+02  EK= 0.79019E-02 SP= 0.00E+00 SK= 0.00E+00
       N       E                     dE             d eps       ncg     rms          rms(c)
DAV:   1    -0.240254151612E+02    0.80258E-03   -0.91800E-05    64   0.747E-02    0.127E-03
RMM:   2    -0.240254161916E+02   -0.10304E-05   -0.11573E-06    48   0.121E-02    0.736E-04
RMM:   3    -0.240254171830E+02   -0.99136E-06   -0.23900E-07    48   0.435E-03    0.323E-04
RMM:   4    -0.240254178145E+02   -0.63153E-06   -0.66726E-08    48   0.225E-03
   10 T=    14. E= -.24018293E+02 F= -.24025418E+02 E0= -.24025418E+02  EK= 0.71249E-02 SP= 0.00E+00 SK= 0.00E+00
