 vasp.5.4.4.18Apr17-6-g9f103f2a35 (build Nov 25 2021 15:25:00) complex          
  
 executed on             LinuxIFC date 2022.02.21  10:17:30
 running on   16 total cores
 distrk:  each k-point on   16 cores,    1 groups
 distr:  one band on NCORES_PER_BAND=   4 cores,    4 groups


--------------------------------------------------------------------------------------------------------


 INCAR:
 POTCAR:    PAW_PBE H 15Jun2001                   
 POTCAR:    PAW_PBE C 08Apr2002                   
 POTCAR:    PAW_PBE H 15Jun2001                   
   VRHFIN =H: ultrasoft test                                                    
   LEXCH  = PE                                                                  
   EATOM  =    12.4884 eV,    0.9179 Ry                                         
                                                                                
   TITEL  = PAW_PBE H 15Jun2001                                                 
   LULTRA =        F    use ultrasoft PP ?                                      
   IUNSCR =        0    unscreen: 0-lin 1-nonlin 2-no                           
   RPACOR =    0.000    partial core radius                                     
   POMASS =    1.000; ZVAL   =    1.000    mass and valenz                      
   RCORE  =    1.100    outmost cutoff radius                                   
   RWIGS  =    0.700; RWIGS  =    0.370    wigner-seitz radius (au A)           
   ENMAX  =  250.000; ENMIN  =  200.000 eV                                      
   RCLOC  =    0.701    cutoff for local pot                                    
   LCOR   =        T    correct aug charges                                     
   LPAW   =        T    paw PP                                                  
   EAUG   =  400.000                                                            
   RMAX   =    1.123    core radius for proj-oper                               
   RAUG   =    1.200    factor for augmentation sphere                          
   RDEP   =    1.112    radius for radial grids                                 
   RDEPT  =    0.926    core radius for aug-charge                              
                                                                                
   Atomic configuration                                                         
    2 entries                                                                   
     n  l   j            E        occ.                                          
     1  0  0.50        -6.4927   1.0000                                         
     2  1  0.50        -3.4015   0.0000                                         
   Description                                                                  
     l       E           TYP  RCUT    TYP  RCUT                                 
     0     -6.4927494     23  1.100                                             
     0      6.8029130     23  1.100                                             
     1     -4.0817478     23  1.100                                             
  local pseudopotential read in
  atomic valenz-charges read in
  non local Contribution for L=           0  read in
    real space projection operators read in
  non local Contribution for L=           0  read in
    real space projection operators read in
  non local Contribution for L=           1  read in
    real space projection operators read in
    PAW grid and wavefunctions read in
 
   number of l-projection  operators is LMAX  =           3
   number of lm-projection operators is LMMAX =           5
 
 POTCAR:    PAW_PBE C 08Apr2002                   
   VRHFIN =C: s2p2                                                              
   LEXCH  = PE                                                                  
   EATOM  =   147.1560 eV,   10.8157 Ry                                         
                                                                                
   TITEL  = PAW_PBE C 08Apr2002                                                 
   LULTRA =        F    use ultrasoft PP ?                                      
   IUNSCR =        1    unscreen: 0-lin 1-nonlin 2-no                           
   RPACOR =    1.200    partial core radius                                     
   POMASS =   12.011; ZVAL   =    4.000    mass and valenz                      
   RCORE  =    1.500    outmost cutoff radius                                   
   RWIGS  =    1.630; RWIGS  =    0.863    wigner-seitz radius (au A)           
   ENMAX  =  400.000; ENMIN  =  300.000 eV                                      
   ICORE  =        2    local potential                                         
   LCOR   =        T    correct aug charges                                     
   LPAW   =        T    paw PP                                                  
   EAUG   =  644.873                                                            
   DEXC   =    0.000                                                            
   RMAX   =    1.529    core radius for proj-oper                               
   RAUG   =    1.300    factor for augmentation sphere                          
   RDEP   =    1.501    radius for radial grids                                 
   RDEPT  =    1.300    core radius for aug-charge                              
                                                                                
   Atomic configuration                                                         
    4 entries                                                                   
     n  l   j            E        occ.                                          
     1  0  0.50      -273.3789   2.0000                                         
     2  0  0.50       -13.7508   2.0000                                         
     2  1  0.50        -5.2854   2.0000                                         
     3  2  1.50        -5.4423   0.0000                                         
   Description                                                                  
     l       E           TYP  RCUT    TYP  RCUT                                 
     0    -13.7508458     23  1.200                                             
     0     -8.2022199     23  1.200                                             
     1     -5.2854383     23  1.500                                             
     1     34.0145650     23  1.500                                             
     2     -5.4423304      7  1.500                                             
  local pseudopotential read in
  partial core-charges read in
  partial kinetic energy density read in
  atomic valenz-charges read in
  non local Contribution for L=           0  read in
    real space projection operators read in
  non local Contribution for L=           0  read in
    real space projection operators read in
  non local Contribution for L=           1  read in
    real space projection operators read in
  non local Contribution for L=           1  read in
    real space projection operators read in
    PAW grid and wavefunctions read in
 
   number of l-projection  operators is LMAX  =           4
   number of lm-projection operators is LMMAX =           8
 
  PAW_PBE H 15Jun2001                   :
 energy of atom  1       EATOM=  -12.4884
 kinetic energy error for atom=    0.0098 (will be added to EATOM!!)
  PAW_PBE C 08Apr2002                   :
 energy of atom  2       EATOM= -147.1560
 kinetic energy error for atom=    0.0288 (will be added to EATOM!!)
 
 
 POSCAR:  H  C                                   
  positions in cartesian coordinates
  No initial velocities read in
 exchange correlation table for  LEXCH =        8
   RHO(1)=    0.500       N(1)  =     2000
   RHO(2)=  100.500       N(2)  =     4000

 VTST: version 3.2, (02/03/18)

 CHAIN: initializing optimizer
 
 OPT: Using VASP Dynamics algorithm
 CHAIN: Read ICHAIN            0
 
 POSCAR:  H  C                                   
  positions in cartesian coordinates
  No initial velocities read in
 


--------------------------------------------------------------------------------------------------------


 ion  position               nearest neighbor table
   1  0.538  0.407  0.361-   5 1.11
   2  0.394  0.481  0.439-   5 1.11
   3  0.553  0.566  0.443-   5 1.10
   4  0.528  0.417  0.539-   5 1.11
   5  0.503  0.467  0.445-   3 1.10   2 1.11   4 1.11   1 1.11
 

IMPORTANT INFORMATION: All symmetrisations will be switched off!
NOSYMM: (Re-)initialisation of all symmetry stuff for point group C_1.

 
 

Automatic generation of k-mesh.
 generate k-points for:    2    2    2
Space group operators:
 irot       det(A)        alpha          n_x          n_y          n_z        tau_x        tau_y        tau_z
    1     1.000000     0.000000     1.000000     0.000000     0.000000     0.000000     0.000000     0.000000
 
 Subroutine IBZKPT returns following result:
 ===========================================
 
 Found      4 irreducible k-points:
 
 Following reciprocal coordinates:
            Coordinates               Weight
  0.250000  0.250000  0.250000      2.000000
 -0.250000  0.250000  0.250000      2.000000
  0.250000 -0.250000  0.250000      2.000000
 -0.250000 -0.250000  0.250000      2.000000
 
 Following cartesian coordinates:
            Coordinates               Weight
  0.024732  0.024915  0.025382      2.000000
 -0.024732  0.025509  0.024228      2.000000
  0.024732 -0.025509  0.024875      2.000000
 -0.024732 -0.024915  0.023721      2.000000
 


--------------------------------------------------------------------------------------------------------




 Dimension of arrays:
   k-points           NKPTS =      4   k-points in BZ     NKDIM =      4   number of bands    NBANDS=      8
   number of dos      NEDOS =    301   number of ions     NIONS =      5
   non local maximal  LDIM  =      4   non local SUM 2l+1 LMDIM =      8
   total plane-waves  NPLWV = 343000
   max r-space proj   IRMAX =      1   max aug-charges    IRDMAX=   4165
   dimension x,y,z NGX =    70 NGY =   70 NGZ =   70
   dimension x,y,z NGXF=   140 NGYF=  140 NGZF=  140
   support grid    NGXF=   140 NGYF=  140 NGZF=  140
   ions per type =               4   1
   NGX,Y,Z   is equivalent  to a cutoff of  11.51, 11.74, 11.42 a.u.
   NGXF,Y,Z  is equivalent  to a cutoff of  23.02, 23.47, 22.85 a.u.

 SYSTEM =  unknown system                          
 POSCAR =   H  C                                   

 Startparameter for this run:
   NWRITE =      2    write-flag & timer
   PREC   = a         normal or accurate (medium, high low for compatibility)
   ISTART =      0    job   : 0-new  1-cont  2-samecut
   ICHARG =      2    charge: 1-file 2-atom 10-const
   ISPIN  =      1    spin polarized calculation?
   LNONCOLLINEAR =      F non collinear calculations
   LSORBIT =      F    spin-orbit coupling
   INIWAV =      1    electr: 0-lowe 1-rand  2-diag
   LASPH  =      F    aspherical Exc in radial PAW
   METAGGA=      F    non-selfconsistent MetaGGA calc.

 Electronic Relaxation 1
   ENCUT  =  400.0 eV  29.40 Ry    5.42 a.u.  16.48 16.17 16.61*2*pi/ulx,y,z
   ENINI  =  400.0     initial cutoff
   ENAUG  =  644.9 eV  augmentation charge cutoff
   NELM   =    120;   NELMIN=  4; NELMDL= -5     # of ELM steps 
   EDIFF  = 0.1E-05   stopping-criterion for ELM
   LREAL  =      F    real-space projection
   NLSPLINE    = F    spline interpolate recip. space projectors
   LCOMPAT=      F    compatible to vasp.4.4
   GGA_COMPAT  = T    GGA compatible to vasp.4.4-vasp.4.6
   LMAXPAW     = -100 max onsite density
   LMAXMIX     =    2 max onsite mixed and CHGCAR
   VOSKOWN=      0    Vosko Wilk Nusair interpolation
   ROPT   =    0.00000   0.00000
 Ionic relaxation
   EDIFFG = 0.1E-04   stopping-criterion for IOM
   NSW    =     10    number of steps for IOM
   NBLOCK =      1;   KBLOCK =     10    inner block; outer block 
   IBRION =      0    ionic relax: 0-MD 1-quasi-New 2-CG
   NFREE  =      0    steps in history (QN), initial steepest desc. (CG)
   ISIF   =      2    stress and relaxation
   IWAVPR =     12    prediction:  0-non 1-charg 2-wave 3-comb
   ISYM   =      0    0-nonsym 1-usesym 2-fastsym
   LCORR  =      T    Harris-Foulkes like correction to forces

   POTIM  = 0.5000    time-step for ionic-motion
   TEIN   =    0.0    initial temperature
   TEBEG  =    0.0;   TEEND  =   0.0 temperature during run
   SMASS  =  -3.00    Nose mass-parameter (am)
   estimated Nose-frequenzy (Omega)   =  0.10E-29 period in steps =****** mass=  -0.234E-26a.u.
   SCALEE = 1.0000    scale energy and forces
   NPACO  =    256;   APACO  = 16.0  distance and # of slots for P.C.
   PSTRESS=    0.0 pullay stress

  Mass of Ions in am
   POMASS =   1.00 12.01
  Ionic Valenz
   ZVAL   =   1.00  4.00
  Atomic Wigner-Seitz radii
   RWIGS  =  -1.00 -1.00
  virtual crystal weights 
   VCA    =   1.00  1.00
   NELECT =       8.0000    total number of electrons
   NUPDOWN=      -1.0000    fix difference up-down

 DOS related values:
   EMIN   =  10.00;   EMAX   =-10.00  energy-range for DOS
   EFERMI =   0.00
   ISMEAR =     0;   SIGMA  =   0.20  broadening in eV -4-tet -1-fermi 0-gaus

 Electronic relaxation 2 (details)
   IALGO  =     68    algorithm
   LDIAG  =      T    sub-space diagonalisation (order eigenvalues)
   LSUBROT=      F    optimize rotation matrix (better conditioning)
   TURBO    =      0    0=normal 1=particle mesh
   IRESTART =      0    0=no restart 2=restart with 2 vectors
   NREBOOT  =      0    no. of reboots
   NMIN     =      0    reboot dimension
   EREF     =   0.00    reference energy to select bands
   IMIX   =      4    mixing-type and parameters
     AMIX     =   0.40;   BMIX     =  1.00
     AMIX_MAG =   1.60;   BMIX_MAG =  1.00
     AMIN     =   0.10
     WC   =   100.;   INIMIX=   1;  MIXPRE=   1;  MAXMIX= -45

 Intra band minimization:
   WEIMIN = 0.0010     energy-eigenvalue tresh-hold
   EBREAK =  0.31E-07  absolut break condition
   DEPER  =   0.30     relativ break condition  

   TIME   =   0.40     timestep for ELM

  volume/ion in A,a.u.               =     204.13      1377.55
  Fermi-wavevector in a.u.,A,eV,Ry     =   0.325196  0.614531  1.438847  0.105752
  Thomas-Fermi vector in A             =   1.215980
 
 Write flags
   LWAVE        =      F    write WAVECAR
   LDOWNSAMPLE  =      F    k-point downsampling of WAVECAR
   LCHARG       =      F    write CHGCAR
   LVTOT        =      F    write LOCPOT, total local potential
   LVHAR        =      F    write LOCPOT, Hartree potential only
   LELF         =      F    write electronic localiz. function (ELF)
   LORBIT       =      0    0 simple, 1 ext, 2 COOP (PROOUT), +10 PAW based schemes


 Dipole corrections
   LMONO  =      F    monopole corrections only (constant potential shift)
   LDIPOL =      F    correct potential (dipole corrections)
   IDIPOL =      0    1-x, 2-y, 3-z, 4-all directions 
   EPSILON=  1.0000000 bulk dielectric constant

 Exchange correlation treatment:
   GGA     =    --    GGA type
   LEXCH   =     8    internal setting for exchange type
   VOSKOWN=      0    Vosko Wilk Nusair interpolation
   LHFCALC =     F    Hartree Fock is set to
   LHFONE  =     F    Hartree Fock one center treatment
   AEXX    =    0.0000 exact exchange contribution

 Linear response parameters
   LEPSILON=     F    determine dielectric tensor
   LRPA    =     F    only Hartree local field effects (RPA)
   LNABLA  =     F    use nabla operator in PAW spheres
   LVEL    =     F    velocity operator in full k-point grid
   LINTERFAST=   F  fast interpolation
   KINTER  =     0    interpolate to denser k-point grid
   CSHIFT  =0.1000    complex shift for real part using Kramers Kronig
   OMEGAMAX=  -1.0    maximum frequency
   DEG_THRESHOLD= 0.2000000E-02 threshold for treating states as degnerate
   RTIME   =   -0.100 relaxation time in fs
  (WPLASMAI=    0.000 imaginary part of plasma frequency in eV, 0.658/RTIME)
   DFIELD  = 0.0000000 0.0000000 0.0000000 field for delta impulse in time
 
 Orbital magnetization related:
   ORBITALMAG=     F  switch on orbital magnetization
   LCHIMAG   =     F  perturbation theory with respect to B field
   DQ        =  0.001000  dq finite difference perturbation B field
   LLRAUG    =     F  two centre corrections for induced B field



--------------------------------------------------------------------------------------------------------


 molecular dynamics for ions
   using a microcanonical ensemble
 charge density and potential will be updated during run
 non-spin polarized calculation
 RMM-DIIS sequential band-by-band and
  variant of blocked Davidson during initial phase
 perform sub-space diagonalisation
    before iterative eigenvector-optimisation
 modified Broyden-mixing scheme, WC =      100.0
 initial mixing is a Kerker type mixing with AMIX =  0.4000 and BMIX =      1.0000
 Hartree-type preconditioning will be used
 using additional bands            4
 reciprocal scheme for non local part
 use partial core corrections
 calculate Harris-corrections to forces 
   (improved forces if not selfconsistent)
 use gradient corrections 
 use of overlap-Matrix (Vanderbilt PP)
 Gauss-broadening in eV      SIGMA  =   0.20


--------------------------------------------------------------------------------------------------------


  energy-cutoff  :      400.00
  volume of cell :     1020.66
      direct lattice vectors                 reciprocal lattice vectors
    10.108400985  0.000000000  0.000000000     0.098927615 -0.001189324  0.002308232
     0.119210661  9.915908874  0.000000000     0.000000000  0.100848043  0.001013667
    -0.238819775 -0.102351186 10.182747061     0.000000000  0.000000000  0.098205327

  length of vectors
    10.108400985  9.916625433 10.186061475     0.098961687  0.100853137  0.098205327


 
 k-points in units of 2pi/SCALE and weight: read from INCAR                         
   0.02473190  0.02491468  0.02538181       0.250
  -0.02473190  0.02550934  0.02422769       0.250
   0.02473190 -0.02550934  0.02487497       0.250
  -0.02473190 -0.02491468  0.02372086       0.250
 
 k-points in reciprocal lattice and weights: read from INCAR                         
   0.25000000  0.25000000  0.25000000       0.250
  -0.25000000  0.25000000  0.25000000       0.250
   0.25000000 -0.25000000  0.25000000       0.250
  -0.25000000 -0.25000000  0.25000000       0.250
 
 position of ions in fractional coordinates (direct lattice) 
   0.53823854  0.40681496  0.36062909
   0.39449197  0.48051498  0.43853435
   0.55261467  0.56556859  0.44272543
   0.52774500  0.41709529  0.53944002
   0.50324458  0.46727547  0.44524255
 
 position of ions in cartesian coordinates  (Angst):
   5.40310230  3.99702921  3.67219485
   3.94023487  4.71985820  4.46548431
   5.54774092  5.56281315  4.50816106
   5.25555138  4.08066660  5.49298131
   5.03636945  4.58788987  4.53379230
 


--------------------------------------------------------------------------------------------------------


 k-point  1 :   0.2500 0.2500 0.2500  plane waves:   18541
 k-point  2 :  -0.2500 0.2500 0.2500  plane waves:   18559
 k-point  3 :   0.2500-0.2500 0.2500  plane waves:   18550
 k-point  4 :  -0.2500-0.2500 0.2500  plane waves:   18521

 maximum and minimum number of plane-waves per node :      4678     4618

 maximum number of plane-waves:     18559
 maximum index in each direction: 
   IXMAX=   16   IYMAX=   16   IZMAX=   16
   IXMIN=  -16   IYMIN=  -16   IZMIN=  -16


 parallel 3D FFT for wavefunctions:
    minimum data exchange during FFTs selected (reduces bandwidth)
 parallel 3D FFT for charge:
    minimum data exchange during FFTs selected (reduces bandwidth)


 total amount of memory used by VASP MPI-rank0    55450. kBytes
=======================================================================

   base      :      30000. kBytes
   nonl-proj :       2746. kBytes
   fftplans  :       8576. kBytes
   grid      :      13527. kBytes
   one-center:          6. kBytes
   wavefun   :        595. kBytes
 
     INWAV:  cpu time    0.0000: real time    0.0001
 Broyden mixing: mesh for mixing (old mesh)
   NGX = 33   NGY = 33   NGZ = 33
  (NGX  =140   NGY  =140   NGZ  =140)
  gives a total of  35937 points

 initial charge density was supplied:
 charge density of overlapping atoms calculated
 number of electron       8.0000000 magnetization 
 keeping initial charge density in first step


--------------------------------------------------------------------------------------------------------


 Maximum index for augmentation-charges          171 (set IRDMAX)


--------------------------------------------------------------------------------------------------------


 First call to EWALD:  gamma=   0.176
 Maximum number of real-space cells 3x 3x 3
 Maximum number of reciprocal cells 3x 3x 3

    FEWALD:  cpu time    0.0023: real time    0.0023


--------------------------------------- Iteration      1(   1)  ---------------------------------------


    POTLOK:  cpu time    0.1812: real time    0.1954
    SETDIJ:  cpu time    0.0044: real time    0.0050
     EDDAV:  cpu time    0.2361: real time    0.2597
       DOS:  cpu time    0.0004: real time    0.0011
    --------------------------------------------
      LOOP:  cpu time    0.4221: real time    0.4611

 eigenvalue-minimisations  :    96
 total energy-change (2. order) : 0.1175450E+02  (-0.1983084E+03)
 number of electron       8.0000000 magnetization 
 augmentation part        8.0000000 magnetization 

 Free energy of the ion-electron system (eV)
  ---------------------------------------------------
  alpha Z        PSCENC =         0.23734783
  Ewald energy   TEWEN  =       127.62607054
  -Hartree energ DENC   =      -243.81282598
  -exchange      EXHF   =         0.00000000
  -V(xc)+E(xc)   XCENC  =        21.96259835
  PAW double counting   =       117.05815612     -117.66307307
  entropy T*S    EENTRO =        -0.00000000
  eigenvalues    EBANDS =       -90.69552705
  atomic energy  EATOM  =       197.04175453
  Solvation  Ediel_sol  =         0.00000000
  ---------------------------------------------------
  free energy    TOTEN  =        11.75450127 eV

  energy without entropy =       11.75450127  energy(sigma->0) =       11.75450127


--------------------------------------------------------------------------------------------------------




--------------------------------------- Iteration      1(   2)  ---------------------------------------


     EDDAV:  cpu time    0.1734: real time    0.1775
       DOS:  cpu time    0.0002: real time    0.0002
    --------------------------------------------
      LOOP:  cpu time    0.1736: real time    0.1777

 eigenvalue-minimisations  :    64
 total energy-change (2. order) :-0.3484052E+02  (-0.3484052E+02)
 number of electron       8.0000000 magnetization 
 augmentation part        8.0000000 magnetization 

 Free energy of the ion-electron system (eV)
  ---------------------------------------------------
  alpha Z        PSCENC =         0.23734783
  Ewald energy   TEWEN  =       127.62607054
  -Hartree energ DENC   =      -243.81282598
  -exchange      EXHF   =         0.00000000
  -V(xc)+E(xc)   XCENC  =        21.96259835
  PAW double counting   =       117.05815612     -117.66307307
  entropy T*S    EENTRO =        -0.00000000
  eigenvalues    EBANDS =      -125.53604587
  atomic energy  EATOM  =       197.04175453
  Solvation  Ediel_sol  =         0.00000000
  ---------------------------------------------------
  free energy    TOTEN  =       -23.08601755 eV

  energy without entropy =      -23.08601755  energy(sigma->0) =      -23.08601755


--------------------------------------------------------------------------------------------------------




--------------------------------------- Iteration      1(   3)  ---------------------------------------


     EDDAV:  cpu time    0.1743: real time    0.1771
       DOS:  cpu time    0.0002: real time    0.0002
    --------------------------------------------
      LOOP:  cpu time    0.1745: real time    0.1773

 eigenvalue-minimisations  :    64
 total energy-change (2. order) :-0.4165928E+01  (-0.4165928E+01)
 number of electron       8.0000000 magnetization 
 augmentation part        8.0000000 magnetization 

 Free energy of the ion-electron system (eV)
  ---------------------------------------------------
  alpha Z        PSCENC =         0.23734783
  Ewald energy   TEWEN  =       127.62607054
  -Hartree energ DENC   =      -243.81282598
  -exchange      EXHF   =         0.00000000
  -V(xc)+E(xc)   XCENC  =        21.96259835
  PAW double counting   =       117.05815612     -117.66307307
  entropy T*S    EENTRO =        -0.00000000
  eigenvalues    EBANDS =      -129.70197402
  atomic energy  EATOM  =       197.04175453
  Solvation  Ediel_sol  =         0.00000000
  ---------------------------------------------------
  free energy    TOTEN  =       -27.25194569 eV

  energy without entropy =      -27.25194569  energy(sigma->0) =      -27.25194569


--------------------------------------------------------------------------------------------------------




--------------------------------------- Iteration      1(   4)  ---------------------------------------


     EDDAV:  cpu time    0.2825: real time    0.2967
       DOS:  cpu time    0.0003: real time    0.0003
    --------------------------------------------
      LOOP:  cpu time    0.2828: real time    0.2970

 eigenvalue-minimisations  :   128
 total energy-change (2. order) :-0.1763540E+00  (-0.1763540E+00)
 number of electron       8.0000000 magnetization 
 augmentation part        8.0000000 magnetization 

 Free energy of the ion-electron system (eV)
  ---------------------------------------------------
  alpha Z        PSCENC =         0.23734783
  Ewald energy   TEWEN  =       127.62607054
  -Hartree energ DENC   =      -243.81282598
  -exchange      EXHF   =         0.00000000
  -V(xc)+E(xc)   XCENC  =        21.96259835
  PAW double counting   =       117.05815612     -117.66307307
  entropy T*S    EENTRO =        -0.00000000
  eigenvalues    EBANDS =      -129.87832803
  atomic energy  EATOM  =       197.04175453
  Solvation  Ediel_sol  =         0.00000000
  ---------------------------------------------------
  free energy    TOTEN  =       -27.42829970 eV

  energy without entropy =      -27.42829970  energy(sigma->0) =      -27.42829970


--------------------------------------------------------------------------------------------------------




--------------------------------------- Iteration      1(   5)  ---------------------------------------


     EDDAV:  cpu time    0.2612: real time    0.2720
       DOS:  cpu time    0.0003: real time    0.0003
    CHARGE:  cpu time    0.0239: real time    0.0246
    MIXING:  cpu time    0.0046: real time    0.0046
    --------------------------------------------
      LOOP:  cpu time    0.2899: real time    0.3016

 eigenvalue-minimisations  :   112
 total energy-change (2. order) :-0.6675967E-04  (-0.6675970E-04)
 number of electron       8.0000000 magnetization 
 augmentation part        0.2221334 magnetization 

 Broyden mixing:
  rms(total) = 0.85599E+00    rms(broyden)= 0.85579E+00
  rms(prec ) = 0.12119E+01
  weight for this iteration     100.00

 Free energy of the ion-electron system (eV)
  ---------------------------------------------------
  alpha Z        PSCENC =         0.23734783
  Ewald energy   TEWEN  =       127.62607054
  -Hartree energ DENC   =      -243.81282598
  -exchange      EXHF   =         0.00000000
  -V(xc)+E(xc)   XCENC  =        21.96259835
  PAW double counting   =       117.05815612     -117.66307307
  entropy T*S    EENTRO =        -0.00000000
  eigenvalues    EBANDS =      -129.87839479
  atomic energy  EATOM  =       197.04175453
  Solvation  Ediel_sol  =         0.00000000
  ---------------------------------------------------
  free energy    TOTEN  =       -27.42836646 eV

  energy without entropy =      -27.42836646  energy(sigma->0) =      -27.42836646


--------------------------------------------------------------------------------------------------------




--------------------------------------- Iteration      1(   6)  ---------------------------------------


    POTLOK:  cpu time    0.1763: real time    0.1814
    SETDIJ:  cpu time    0.0017: real time    0.0017
    EDDIAG:  cpu time    0.0495: real time    0.0603
  RMM-DIIS:  cpu time    0.1781: real time    0.1822
    ORTHCH:  cpu time    0.0018: real time    0.0019
       DOS:  cpu time    0.0002: real time    0.0002
    CHARGE:  cpu time    0.0222: real time    0.0224
    MIXING:  cpu time    0.0052: real time    0.0069
    --------------------------------------------
      LOOP:  cpu time    0.4349: real time    0.4570

 eigenvalue-minimisations  :    64
 total energy-change (2. order) : 0.2793140E+01  (-0.5159978E+00)
 number of electron       8.0000000 magnetization 
 augmentation part        0.1958171 magnetization 

 Broyden mixing:
  rms(total) = 0.42263E+00    rms(broyden)= 0.42254E+00
  rms(prec ) = 0.54741E+00
  weight for this iteration     100.00

 eigenvalues of (default mixing * dielectric matrix)
  average eigenvalue GAMMA=   1.2993
  1.2993

 Free energy of the ion-electron system (eV)
  ---------------------------------------------------
  alpha Z        PSCENC =         0.23734783
  Ewald energy   TEWEN  =       127.62607054
  -Hartree energ DENC   =      -263.19854134
  -exchange      EXHF   =         0.00000000
  -V(xc)+E(xc)   XCENC  =        23.13950474
  PAW double counting   =       235.53141538     -236.30643955
  entropy T*S    EENTRO =        -0.00000000
  eigenvalues    EBANDS =      -108.70633855
  atomic energy  EATOM  =       197.04175453
  Solvation  Ediel_sol  =         0.00000000
  ---------------------------------------------------
  free energy    TOTEN  =       -24.63522641 eV

  energy without entropy =      -24.63522641  energy(sigma->0) =      -24.63522641


--------------------------------------------------------------------------------------------------------




--------------------------------------- Iteration      1(   7)  ---------------------------------------


    POTLOK:  cpu time    0.1621: real time    0.1671
    SETDIJ:  cpu time    0.0017: real time    0.0017
    EDDIAG:  cpu time    0.0447: real time    0.0464
  RMM-DIIS:  cpu time    0.1723: real time    0.1797
    ORTHCH:  cpu time    0.0014: real time    0.0014
       DOS:  cpu time    0.0002: real time    0.0002
    CHARGE:  cpu time    0.0208: real time    0.0217
    MIXING:  cpu time    0.0049: real time    0.0050
    --------------------------------------------
      LOOP:  cpu time    0.4081: real time    0.4232

 eigenvalue-minimisations  :    64
 total energy-change (2. order) : 0.4743052E+00  (-0.1134637E+00)
 number of electron       7.9999999 magnetization 
 augmentation part        0.1856710 magnetization 

 Broyden mixing:
  rms(total) = 0.22543E+00    rms(broyden)= 0.22538E+00
  rms(prec ) = 0.27275E+00
  weight for this iteration     100.00

 eigenvalues of (default mixing * dielectric matrix)
  average eigenvalue GAMMA=   1.8403
  1.4475  2.2330

 Free energy of the ion-electron system (eV)
  ---------------------------------------------------
  alpha Z        PSCENC =         0.23734783
  Ewald energy   TEWEN  =       127.62607054
  -Hartree energ DENC   =      -274.54825214
  -exchange      EXHF   =         0.00000000
  -V(xc)+E(xc)   XCENC  =        23.97623270
  PAW double counting   =       357.31811767     -358.12981370
  entropy T*S    EENTRO =        -0.00000000
  eigenvalues    EBANDS =       -97.68237860
  atomic energy  EATOM  =       197.04175453
  Solvation  Ediel_sol  =         0.00000000
  ---------------------------------------------------
  free energy    TOTEN  =       -24.16092117 eV

  energy without entropy =      -24.16092117  energy(sigma->0) =      -24.16092117


--------------------------------------------------------------------------------------------------------




--------------------------------------- Iteration      1(   8)  ---------------------------------------


    POTLOK:  cpu time    0.1566: real time    0.1615
    SETDIJ:  cpu time    0.0019: real time    0.0020
    EDDIAG:  cpu time    0.0443: real time    0.0463
  RMM-DIIS:  cpu time    0.1746: real time    0.1821
    ORTHCH:  cpu time    0.0014: real time    0.0014
       DOS:  cpu time    0.0002: real time    0.0003
    CHARGE:  cpu time    0.0209: real time    0.0216
    MIXING:  cpu time    0.0049: real time    0.0050
    --------------------------------------------
      LOOP:  cpu time    0.4051: real time    0.4202

 eigenvalue-minimisations  :    64
 total energy-change (2. order) : 0.1447788E+00  (-0.1622297E-01)
 number of electron       8.0000000 magnetization 
 augmentation part        0.1843167 magnetization 

 Broyden mixing:
  rms(total) = 0.22749E-01    rms(broyden)= 0.22727E-01
  rms(prec ) = 0.52261E-01
  weight for this iteration     100.00

 eigenvalues of (default mixing * dielectric matrix)
  average eigenvalue GAMMA=   1.5432
  2.2482  0.9835  1.3978

 Free energy of the ion-electron system (eV)
  ---------------------------------------------------
  alpha Z        PSCENC =         0.23734783
  Ewald energy   TEWEN  =       127.62607054
  -Hartree energ DENC   =      -279.93785068
  -exchange      EXHF   =         0.00000000
  -V(xc)+E(xc)   XCENC  =        24.51090004
  PAW double counting   =       462.75320617     -463.53328830
  entropy T*S    EENTRO =        -0.00000000
  eigenvalues    EBANDS =       -92.71428250
  atomic energy  EATOM  =       197.04175453
  Solvation  Ediel_sol  =         0.00000000
  ---------------------------------------------------
  free energy    TOTEN  =       -24.01614236 eV

  energy without entropy =      -24.01614236  energy(sigma->0) =      -24.01614236


--------------------------------------------------------------------------------------------------------




--------------------------------------- Iteration      1(   9)  ---------------------------------------


    POTLOK:  cpu time    0.1580: real time    0.1610
    SETDIJ:  cpu time    0.0019: real time    0.0019
    EDDIAG:  cpu time    0.0451: real time    0.0461
  RMM-DIIS:  cpu time    0.1790: real time    0.1820
    ORTHCH:  cpu time    0.0015: real time    0.0015
       DOS:  cpu time    0.0002: real time    0.0002
    CHARGE:  cpu time    0.0211: real time    0.0212
    MIXING:  cpu time    0.0052: real time    0.0054
    --------------------------------------------
      LOOP:  cpu time    0.4120: real time    0.4193

 eigenvalue-minimisations  :    64
 total energy-change (2. order) : 0.5569021E-02  (-0.1084868E-02)
 number of electron       8.0000000 magnetization 
 augmentation part        0.1837647 magnetization 

 Broyden mixing:
  rms(total) = 0.19350E-01    rms(broyden)= 0.19347E-01
  rms(prec ) = 0.39993E-01
  weight for this iteration     100.00

 eigenvalues of (default mixing * dielectric matrix)
  average eigenvalue GAMMA=   2.0894
  3.0518  2.9373  1.0026  1.3658

 Free energy of the ion-electron system (eV)
  ---------------------------------------------------
  alpha Z        PSCENC =         0.23734783
  Ewald energy   TEWEN  =       127.62607054
  -Hartree energ DENC   =      -281.17544489
  -exchange      EXHF   =         0.00000000
  -V(xc)+E(xc)   XCENC  =        24.57856551
  PAW double counting   =       465.60255822     -466.38537291
  entropy T*S    EENTRO =        -0.00000000
  eigenvalues    EBANDS =       -91.53605218
  atomic energy  EATOM  =       197.04175453
  Solvation  Ediel_sol  =         0.00000000
  ---------------------------------------------------
  free energy    TOTEN  =       -24.01057334 eV

  energy without entropy =      -24.01057334  energy(sigma->0) =      -24.01057334


--------------------------------------------------------------------------------------------------------




--------------------------------------- Iteration      1(  10)  ---------------------------------------


    POTLOK:  cpu time    0.2128: real time    0.2148
    SETDIJ:  cpu time    0.0017: real time    0.0018
    EDDIAG:  cpu time    0.0459: real time    0.0470
  RMM-DIIS:  cpu time    0.1794: real time    0.1812
    ORTHCH:  cpu time    0.0018: real time    0.0018
       DOS:  cpu time    0.0002: real time    0.0002
    CHARGE:  cpu time    0.0223: real time    0.0225
    MIXING:  cpu time    0.0057: real time    0.0068
    --------------------------------------------
      LOOP:  cpu time    0.4697: real time    0.4760

 eigenvalue-minimisations  :    64
 total energy-change (2. order) : 0.6306395E-02  (-0.2456763E-02)
 number of electron       8.0000000 magnetization 
 augmentation part        0.1827283 magnetization 

 Broyden mixing:
  rms(total) = 0.27449E-01    rms(broyden)= 0.27448E-01
  rms(prec ) = 0.35093E-01
  weight for this iteration     100.00

 eigenvalues of (default mixing * dielectric matrix)
  average eigenvalue GAMMA=   1.7860
  3.0779  2.4161  1.2269  1.2269  0.9822

 Free energy of the ion-electron system (eV)
  ---------------------------------------------------
  alpha Z        PSCENC =         0.23734783
  Ewald energy   TEWEN  =       127.62607054
  -Hartree energ DENC   =      -283.35993469
  -exchange      EXHF   =         0.00000000
  -V(xc)+E(xc)   XCENC  =        24.64903707
  PAW double counting   =       450.19269329     -450.97899124
  entropy T*S    EENTRO =        -0.00000000
  eigenvalues    EBANDS =       -89.41224428
  atomic energy  EATOM  =       197.04175453
  Solvation  Ediel_sol  =         0.00000000
  ---------------------------------------------------
  free energy    TOTEN  =       -24.00426695 eV

  energy without entropy =      -24.00426695  energy(sigma->0) =      -24.00426695


--------------------------------------------------------------------------------------------------------




--------------------------------------- Iteration      1(  11)  ---------------------------------------


    POTLOK:  cpu time    0.1512: real time    0.1573
    SETDIJ:  cpu time    0.0017: real time    0.0018
    EDDIAG:  cpu time    0.0450: real time    0.0466
  RMM-DIIS:  cpu time    0.1731: real time    0.1797
    ORTHCH:  cpu time    0.0015: real time    0.0022
       DOS:  cpu time    0.0002: real time    0.0002
    CHARGE:  cpu time    0.0213: real time    0.0218
    MIXING:  cpu time    0.0054: real time    0.0055
    --------------------------------------------
      LOOP:  cpu time    0.3993: real time    0.4150

 eigenvalue-minimisations  :    64
 total energy-change (2. order) :-0.7808428E-03  (-0.8447021E-03)
 number of electron       8.0000000 magnetization 
 augmentation part        0.1831028 magnetization 

 Broyden mixing:
  rms(total) = 0.86893E-02    rms(broyden)= 0.86861E-02
  rms(prec ) = 0.14412E-01
  weight for this iteration     100.00

 eigenvalues of (default mixing * dielectric matrix)
  average eigenvalue GAMMA=   2.2923
  4.9287  3.0971  2.4290  1.2695  1.0148  1.0148

 Free energy of the ion-electron system (eV)
  ---------------------------------------------------
  alpha Z        PSCENC =         0.23734783
  Ewald energy   TEWEN  =       127.62607054
  -Hartree energ DENC   =      -283.24988270
  -exchange      EXHF   =         0.00000000
  -V(xc)+E(xc)   XCENC  =        24.66306836
  PAW double counting   =       459.11045135     -459.88915423
  entropy T*S    EENTRO =        -0.00000000
  eigenvalues    EBANDS =       -89.54470347
  atomic energy  EATOM  =       197.04175453
  Solvation  Ediel_sol  =         0.00000000
  ---------------------------------------------------
  free energy    TOTEN  =       -24.00504779 eV

  energy without entropy =      -24.00504779  energy(sigma->0) =      -24.00504779


--------------------------------------------------------------------------------------------------------




--------------------------------------- Iteration      1(  12)  ---------------------------------------


    POTLOK:  cpu time    0.1444: real time    0.1487
    SETDIJ:  cpu time    0.0017: real time    0.0017
    EDDIAG:  cpu time    0.0445: real time    0.0461
  RMM-DIIS:  cpu time    0.1752: real time    0.1820
    ORTHCH:  cpu time    0.0016: real time    0.0016
       DOS:  cpu time    0.0002: real time    0.0002
    CHARGE:  cpu time    0.0208: real time    0.0213
    MIXING:  cpu time    0.0056: real time    0.0057
    --------------------------------------------
      LOOP:  cpu time    0.3940: real time    0.4073

 eigenvalue-minimisations  :    64
 total energy-change (2. order) :-0.9477609E-02  (-0.3357998E-03)
 number of electron       8.0000000 magnetization 
 augmentation part        0.1833108 magnetization 

 Broyden mixing:
  rms(total) = 0.12334E-01    rms(broyden)= 0.12333E-01
  rms(prec ) = 0.16142E-01
  weight for this iteration     100.00

 eigenvalues of (default mixing * dielectric matrix)
  average eigenvalue GAMMA=   2.0232
  4.8672  2.9580  2.4283  1.2248  1.0100  1.0100  0.6643

 Free energy of the ion-electron system (eV)
  ---------------------------------------------------
  alpha Z        PSCENC =         0.23734783
  Ewald energy   TEWEN  =       127.62607054
  -Hartree energ DENC   =      -283.45802045
  -exchange      EXHF   =         0.00000000
  -V(xc)+E(xc)   XCENC  =        24.65476147
  PAW double counting   =       456.03939152     -456.81715209
  entropy T*S    EENTRO =        -0.00000000
  eigenvalues    EBANDS =       -89.33867875
  atomic energy  EATOM  =       197.04175453
  Solvation  Ediel_sol  =         0.00000000
  ---------------------------------------------------
  free energy    TOTEN  =       -24.01452540 eV

  energy without entropy =      -24.01452540  energy(sigma->0) =      -24.01452540


--------------------------------------------------------------------------------------------------------




--------------------------------------- Iteration      1(  13)  ---------------------------------------


    POTLOK:  cpu time    0.1439: real time    0.1496
    SETDIJ:  cpu time    0.0017: real time    0.0017
    EDDIAG:  cpu time    0.0438: real time    0.0451
  RMM-DIIS:  cpu time    0.1734: real time    0.1811
    ORTHCH:  cpu time    0.0016: real time    0.0016
       DOS:  cpu time    0.0002: real time    0.0002
    CHARGE:  cpu time    0.0200: real time    0.0205
    MIXING:  cpu time    0.0059: real time    0.0061
    --------------------------------------------
      LOOP:  cpu time    0.3906: real time    0.4060

 eigenvalue-minimisations  :    64
 total energy-change (2. order) :-0.4904886E-03  (-0.9505480E-04)
 number of electron       8.0000000 magnetization 
 augmentation part        0.1830758 magnetization 

 Broyden mixing:
  rms(total) = 0.49824E-02    rms(broyden)= 0.49823E-02
  rms(prec ) = 0.67930E-02
  weight for this iteration     100.00

 eigenvalues of (default mixing * dielectric matrix)
  average eigenvalue GAMMA=   2.4868
  6.3506  4.3040  2.5488  2.4107  1.2048  1.2048  0.9993  0.8717

 Free energy of the ion-electron system (eV)
  ---------------------------------------------------
  alpha Z        PSCENC =         0.23734783
  Ewald energy   TEWEN  =       127.62607054
  -Hartree energ DENC   =      -283.63625168
  -exchange      EXHF   =         0.00000000
  -V(xc)+E(xc)   XCENC  =        24.65974284
  PAW double counting   =       455.84489758     -456.62497678
  entropy T*S    EENTRO =        -0.00000000
  eigenvalues    EBANDS =       -89.16360074
  atomic energy  EATOM  =       197.04175453
  Solvation  Ediel_sol  =         0.00000000
  ---------------------------------------------------
  free energy    TOTEN  =       -24.01501589 eV

  energy without entropy =      -24.01501589  energy(sigma->0) =      -24.01501589


--------------------------------------------------------------------------------------------------------




--------------------------------------- Iteration      1(  14)  ---------------------------------------


    POTLOK:  cpu time    0.1437: real time    0.1460
    SETDIJ:  cpu time    0.0016: real time    0.0017
    EDDIAG:  cpu time    0.0443: real time    0.0452
  RMM-DIIS:  cpu time    0.1787: real time    0.1822
    ORTHCH:  cpu time    0.0021: real time    0.0021
       DOS:  cpu time    0.0002: real time    0.0002
    CHARGE:  cpu time    0.0206: real time    0.0209
    MIXING:  cpu time    0.0064: real time    0.0066
    --------------------------------------------
      LOOP:  cpu time    0.3977: real time    0.4049

 eigenvalue-minimisations  :    64
 total energy-change (2. order) :-0.2893049E-02  (-0.1609764E-03)
 number of electron       8.0000000 magnetization 
 augmentation part        0.1829181 magnetization 

 Broyden mixing:
  rms(total) = 0.39000E-02    rms(broyden)= 0.38983E-02
  rms(prec ) = 0.50219E-02
  weight for this iteration     100.00

 eigenvalues of (default mixing * dielectric matrix)
  average eigenvalue GAMMA=   2.3370
  6.5433  4.1803  2.5753  2.4001  1.1563  1.1563  1.1023  0.9597  0.9597

 Free energy of the ion-electron system (eV)
  ---------------------------------------------------
  alpha Z        PSCENC =         0.23734783
  Ewald energy   TEWEN  =       127.62607054
  -Hartree energ DENC   =      -283.65670543
  -exchange      EXHF   =         0.00000000
  -V(xc)+E(xc)   XCENC  =        24.65028219
  PAW double counting   =       455.05272616     -455.83444484
  entropy T*S    EENTRO =        -0.00000000
  eigenvalues    EBANDS =       -89.13493992
  atomic energy  EATOM  =       197.04175453
  Solvation  Ediel_sol  =         0.00000000
  ---------------------------------------------------
  free energy    TOTEN  =       -24.01790893 eV

  energy without entropy =      -24.01790893  energy(sigma->0) =      -24.01790893


--------------------------------------------------------------------------------------------------------




--------------------------------------- Iteration      1(  15)  ---------------------------------------


    POTLOK:  cpu time    0.1437: real time    0.1463
    SETDIJ:  cpu time    0.0019: real time    0.0020
    EDDIAG:  cpu time    0.0448: real time    0.0455
  RMM-DIIS:  cpu time    0.1802: real time    0.1835
    ORTHCH:  cpu time    0.0016: real time    0.0016
       DOS:  cpu time    0.0002: real time    0.0002
    CHARGE:  cpu time    0.0203: real time    0.0206
    MIXING:  cpu time    0.0064: real time    0.0066
    --------------------------------------------
      LOOP:  cpu time    0.3991: real time    0.4062

 eigenvalue-minimisations  :    64
 total energy-change (2. order) :-0.1864287E-03  (-0.5189107E-05)
 number of electron       8.0000000 magnetization 
 augmentation part        0.1828965 magnetization 

 Broyden mixing:
  rms(total) = 0.19428E-02    rms(broyden)= 0.19427E-02
  rms(prec ) = 0.25386E-02
  weight for this iteration     100.00

 eigenvalues of (default mixing * dielectric matrix)
  average eigenvalue GAMMA=   2.5774
  7.6763  4.9323  3.0063  2.6058  2.1628  1.2552  1.2552  1.0073  0.9705  0.9020

 Free energy of the ion-electron system (eV)
  ---------------------------------------------------
  alpha Z        PSCENC =         0.23734783
  Ewald energy   TEWEN  =       127.62607054
  -Hartree energ DENC   =      -283.63257700
  -exchange      EXHF   =         0.00000000
  -V(xc)+E(xc)   XCENC  =        24.65008945
  PAW double counting   =       455.26789876     -456.04883555
  entropy T*S    EENTRO =        -0.00000000
  eigenvalues    EBANDS =       -89.15984393
  atomic energy  EATOM  =       197.04175453
  Solvation  Ediel_sol  =         0.00000000
  ---------------------------------------------------
  free energy    TOTEN  =       -24.01809536 eV

  energy without entropy =      -24.01809536  energy(sigma->0) =      -24.01809536


--------------------------------------------------------------------------------------------------------




--------------------------------------- Iteration      1(  16)  ---------------------------------------


    POTLOK:  cpu time    0.1450: real time    0.1477
    SETDIJ:  cpu time    0.0018: real time    0.0018
    EDDIAG:  cpu time    0.0442: real time    0.0450
  RMM-DIIS:  cpu time    0.1765: real time    0.1798
    ORTHCH:  cpu time    0.0014: real time    0.0014
       DOS:  cpu time    0.0002: real time    0.0002
    CHARGE:  cpu time    0.0207: real time    0.0211
    MIXING:  cpu time    0.0063: real time    0.0064
    --------------------------------------------
      LOOP:  cpu time    0.3962: real time    0.4034

 eigenvalue-minimisations  :    64
 total energy-change (2. order) :-0.2218952E-03  (-0.2216934E-04)
 number of electron       8.0000000 magnetization 
 augmentation part        0.1829826 magnetization 

 Broyden mixing:
  rms(total) = 0.15184E-02    rms(broyden)= 0.15178E-02
  rms(prec ) = 0.19992E-02
  weight for this iteration     100.00

 eigenvalues of (default mixing * dielectric matrix)
  average eigenvalue GAMMA=   2.5169
  7.9215  4.8978  3.6483  2.4121  2.3723  1.2362  1.2362  1.0392  1.0392  0.9124
  0.9710

 Free energy of the ion-electron system (eV)
  ---------------------------------------------------
  alpha Z        PSCENC =         0.23734783
  Ewald energy   TEWEN  =       127.62607054
  -Hartree energ DENC   =      -283.58400970
  -exchange      EXHF   =         0.00000000
  -V(xc)+E(xc)   XCENC  =        24.64882741
  PAW double counting   =       455.35312317     -456.13324779
  entropy T*S    EENTRO =        -0.00000000
  eigenvalues    EBANDS =       -89.20818324
  atomic energy  EATOM  =       197.04175453
  Solvation  Ediel_sol  =         0.00000000
  ---------------------------------------------------
  free energy    TOTEN  =       -24.01831726 eV

  energy without entropy =      -24.01831726  energy(sigma->0) =      -24.01831726


--------------------------------------------------------------------------------------------------------




--------------------------------------- Iteration      1(  17)  ---------------------------------------


    POTLOK:  cpu time    0.1438: real time    0.1483
    SETDIJ:  cpu time    0.0018: real time    0.0018
    EDDIAG:  cpu time    0.0439: real time    0.0445
  RMM-DIIS:  cpu time    0.1760: real time    0.1787
    ORTHCH:  cpu time    0.0015: real time    0.0015
       DOS:  cpu time    0.0002: real time    0.0002
    CHARGE:  cpu time    0.0208: real time    0.0211
    MIXING:  cpu time    0.0066: real time    0.0067
    --------------------------------------------
      LOOP:  cpu time    0.3946: real time    0.4027

 eigenvalue-minimisations  :    64
 total energy-change (2. order) :-0.1704310E-04  (-0.3654972E-05)
 number of electron       8.0000000 magnetization 
 augmentation part        0.1829458 magnetization 

 Broyden mixing:
  rms(total) = 0.23629E-03    rms(broyden)= 0.23625E-03
  rms(prec ) = 0.30250E-03
  weight for this iteration     100.00

 eigenvalues of (default mixing * dielectric matrix)
  average eigenvalue GAMMA=   2.6022
  8.4740  5.2615  3.9767  2.6595  2.4517  1.8457  1.3252  1.3252  1.0812  1.0061
  0.9216  0.8984

 Free energy of the ion-electron system (eV)
  ---------------------------------------------------
  alpha Z        PSCENC =         0.23734783
  Ewald energy   TEWEN  =       127.62607054
  -Hartree energ DENC   =      -283.63340149
  -exchange      EXHF   =         0.00000000
  -V(xc)+E(xc)   XCENC  =        24.65104780
  PAW double counting   =       455.34485245     -456.12543924
  entropy T*S    EENTRO =        -0.00000000
  eigenvalues    EBANDS =       -89.16056672
  atomic energy  EATOM  =       197.04175453
  Solvation  Ediel_sol  =         0.00000000
  ---------------------------------------------------
  free energy    TOTEN  =       -24.01833430 eV

  energy without entropy =      -24.01833430  energy(sigma->0) =      -24.01833430


--------------------------------------------------------------------------------------------------------




--------------------------------------- Iteration      1(  18)  ---------------------------------------


    POTLOK:  cpu time    0.1499: real time    0.1523
    SETDIJ:  cpu time    0.0017: real time    0.0017
    EDDIAG:  cpu time    0.0442: real time    0.0450
  RMM-DIIS:  cpu time    0.1689: real time    0.1718
    ORTHCH:  cpu time    0.0015: real time    0.0016
       DOS:  cpu time    0.0002: real time    0.0002
    CHARGE:  cpu time    0.0215: real time    0.0219
    MIXING:  cpu time    0.0069: real time    0.0069
    --------------------------------------------
      LOOP:  cpu time    0.3949: real time    0.4013

 eigenvalue-minimisations  :    60
 total energy-change (2. order) :-0.1528199E-04  (-0.3627038E-06)
 number of electron       8.0000000 magnetization 
 augmentation part        0.1829346 magnetization 

 Broyden mixing:
  rms(total) = 0.16416E-03    rms(broyden)= 0.16400E-03
  rms(prec ) = 0.22878E-03
  weight for this iteration     100.00

 eigenvalues of (default mixing * dielectric matrix)
  average eigenvalue GAMMA=   2.5811
  8.5418  5.4008  3.8218  3.1021  2.5154  2.2611  1.3145  1.3145  0.9007  0.9731
  0.9780  1.2150  1.2150

 Free energy of the ion-electron system (eV)
  ---------------------------------------------------
  alpha Z        PSCENC =         0.23734783
  Ewald energy   TEWEN  =       127.62607054
  -Hartree energ DENC   =      -283.62749068
  -exchange      EXHF   =         0.00000000
  -V(xc)+E(xc)   XCENC  =        24.65041425
  PAW double counting   =       455.23902537     -456.01963989
  entropy T*S    EENTRO =        -0.00000000
  eigenvalues    EBANDS =       -89.16583154
  atomic energy  EATOM  =       197.04175453
  Solvation  Ediel_sol  =         0.00000000
  ---------------------------------------------------
  free energy    TOTEN  =       -24.01834958 eV

  energy without entropy =      -24.01834958  energy(sigma->0) =      -24.01834958


--------------------------------------------------------------------------------------------------------




--------------------------------------- Iteration      1(  19)  ---------------------------------------


    POTLOK:  cpu time    0.1482: real time    0.1527
    SETDIJ:  cpu time    0.0019: real time    0.0019
    EDDIAG:  cpu time    0.0444: real time    0.0450
  RMM-DIIS:  cpu time    0.1417: real time    0.1441
    ORTHCH:  cpu time    0.0015: real time    0.0015
       DOS:  cpu time    0.0002: real time    0.0002
    CHARGE:  cpu time    0.0199: real time    0.0202
    MIXING:  cpu time    0.0071: real time    0.0072
    --------------------------------------------
      LOOP:  cpu time    0.3649: real time    0.3728

 eigenvalue-minimisations  :    48
 total energy-change (2. order) :-0.2124726E-05  (-0.1818813E-07)
 number of electron       8.0000000 magnetization 
 augmentation part        0.1829351 magnetization 

 Broyden mixing:
  rms(total) = 0.12828E-03    rms(broyden)= 0.12826E-03
  rms(prec ) = 0.16916E-03
  weight for this iteration     100.00

 eigenvalues of (default mixing * dielectric matrix)
  average eigenvalue GAMMA=   2.5818
  8.5837  5.6317  3.8378  3.8378  2.4532  2.4532  1.8306  1.3143  1.3143  1.0787
  0.9812  0.9812  0.9240  0.9240

 Free energy of the ion-electron system (eV)
  ---------------------------------------------------
  alpha Z        PSCENC =         0.23734783
  Ewald energy   TEWEN  =       127.62607054
  -Hartree energ DENC   =      -283.62390149
  -exchange      EXHF   =         0.00000000
  -V(xc)+E(xc)   XCENC  =        24.65019493
  PAW double counting   =       455.22684784     -456.00743179
  entropy T*S    EENTRO =        -0.00000000
  eigenvalues    EBANDS =       -89.16923410
  atomic energy  EATOM  =       197.04175453
  Solvation  Ediel_sol  =         0.00000000
  ---------------------------------------------------
  free energy    TOTEN  =       -24.01835171 eV

  energy without entropy =      -24.01835171  energy(sigma->0) =      -24.01835171


--------------------------------------------------------------------------------------------------------




--------------------------------------- Iteration      1(  20)  ---------------------------------------


    POTLOK:  cpu time    0.1527: real time    0.1548
    SETDIJ:  cpu time    0.0017: real time    0.0018
    EDDIAG:  cpu time    0.0444: real time    0.0454
  RMM-DIIS:  cpu time    0.1425: real time    0.1448
    ORTHCH:  cpu time    0.0014: real time    0.0014
       DOS:  cpu time    0.0002: real time    0.0002
    CHARGE:  cpu time    0.0206: real time    0.0210
    MIXING:  cpu time    0.0072: real time    0.0073
    --------------------------------------------
      LOOP:  cpu time    0.3707: real time    0.3767

 eigenvalue-minimisations  :    48
 total energy-change (2. order) :-0.1602992E-05  (-0.4041633E-07)
 number of electron       8.0000000 magnetization 
 augmentation part        0.1829388 magnetization 

 Broyden mixing:
  rms(total) = 0.28284E-04    rms(broyden)= 0.28274E-04
  rms(prec ) = 0.39139E-04
  weight for this iteration     100.00

 eigenvalues of (default mixing * dielectric matrix)
  average eigenvalue GAMMA=   2.5260
  8.5972  5.6361  3.9340  3.8272  2.4674  2.4674  1.7016  1.7016  1.2638  1.2638
  1.0999  1.0999  0.8939  0.9680  0.9680

 Free energy of the ion-electron system (eV)
  ---------------------------------------------------
  alpha Z        PSCENC =         0.23734783
  Ewald energy   TEWEN  =       127.62607054
  -Hartree energ DENC   =      -283.61977795
  -exchange      EXHF   =         0.00000000
  -V(xc)+E(xc)   XCENC  =        24.65000022
  PAW double counting   =       455.23271716     -456.01325254
  entropy T*S    EENTRO =        -0.00000000
  eigenvalues    EBANDS =       -89.17321310
  atomic energy  EATOM  =       197.04175453
  Solvation  Ediel_sol  =         0.00000000
  ---------------------------------------------------
  free energy    TOTEN  =       -24.01835331 eV

  energy without entropy =      -24.01835331  energy(sigma->0) =      -24.01835331


--------------------------------------------------------------------------------------------------------




--------------------------------------- Iteration      1(  21)  ---------------------------------------


    POTLOK:  cpu time    0.1517: real time    0.1540
    SETDIJ:  cpu time    0.0018: real time    0.0019
    EDDIAG:  cpu time    0.0448: real time    0.0454
  RMM-DIIS:  cpu time    0.1391: real time    0.1397
    ORTHCH:  cpu time    0.0020: real time    0.0020
       DOS:  cpu time    0.0002: real time    0.0002
    --------------------------------------------
      LOOP:  cpu time    0.3396: real time    0.3430

 eigenvalue-minimisations  :    44
 total energy-change (2. order) :-0.4316668E-06  (-0.4249017E-08)
 number of electron       8.0000000 magnetization 
 augmentation part        0.1829388 magnetization 

 Free energy of the ion-electron system (eV)
  ---------------------------------------------------
  alpha Z        PSCENC =         0.23734783
  Ewald energy   TEWEN  =       127.62607054
  -Hartree energ DENC   =      -283.62181771
  -exchange      EXHF   =         0.00000000
  -V(xc)+E(xc)   XCENC  =        24.65013895
  PAW double counting   =       455.24162218     -456.02216646
  entropy T*S    EENTRO =        -0.00000000
  eigenvalues    EBANDS =       -89.17130360
  atomic energy  EATOM  =       197.04175453
  Solvation  Ediel_sol  =         0.00000000
  ---------------------------------------------------
  free energy    TOTEN  =       -24.01835374 eV

  energy without entropy =      -24.01835374  energy(sigma->0) =      -24.01835374


--------------------------------------------------------------------------------------------------------




 average (electrostatic) potential at core
  the test charge radii are     0.5201  0.6991
  (the norm of the test charge is              1.0000)
       1 -41.4343       2 -41.4372       3 -41.4685       4 -41.4328       5 -58.0151
 
 
 
 E-fermi :  -8.2038     XC(G=0):  -0.6879     alpha+bet : -0.2064


 k-point     1 :       0.2500    0.2500    0.2500
  band No.  band energies     occupation 
      1     -16.8209      2.00000
      2      -9.4095      2.00000
      3      -9.2274      2.00000
      4      -9.1278      2.00000
      5      -0.3257      0.00000
      6       0.5466      0.00000
      7       0.6497      0.00000
      8       0.6926      0.00000

 k-point     2 :      -0.2500    0.2500    0.2500
  band No.  band energies     occupation 
      1     -16.8210      2.00000
      2      -9.4096      2.00000
      3      -9.2273      2.00000
      4      -9.1279      2.00000
      5      -0.3276      0.00000
      6       0.5504      0.00000
      7       0.6573      0.00000
      8       0.6906      0.00000

 k-point     3 :       0.2500   -0.2500    0.2500
  band No.  band energies     occupation 
      1     -16.8209      2.00000
      2      -9.4096      2.00000
      3      -9.2273      2.00000
      4      -9.1279      2.00000
      5      -0.3253      0.00000
      6       0.5445      0.00000
      7       0.6453      0.00000
      8       0.6928      0.00000

 k-point     4 :      -0.2500   -0.2500    0.2500
  band No.  band energies     occupation 
      1     -16.8209      2.00000
      2      -9.4095      2.00000
      3      -9.2273      2.00000
      4      -9.1278      2.00000
      5      -0.3317      0.00000
      6       0.5596      0.00000
      7       0.6733      0.00000
      8       0.7001      0.00000


--------------------------------------------------------------------------------------------------------


 soft charge-density along one line, spin component           1
         0         1         2         3         4         5         6         7         8         9
 total charge-density along one line
 
 pseudopotential strength for first ion, spin component:           1
 -2.341  -4.033  -0.001  -0.001   0.001
 -4.033  -6.863  -0.003  -0.004   0.002
 -0.001  -0.003  -0.338   0.002  -0.001
 -0.001  -0.004   0.002  -0.336  -0.001
  0.001   0.002  -0.001  -0.001  -0.339
 total augmentation occupancy for first ion, spin component:           1
  3.506  -0.633   0.222   0.327  -0.139
 -0.633   0.128  -0.042  -0.060   0.026
  0.222  -0.042   0.020   0.017  -0.007
  0.327  -0.060   0.017   0.034  -0.011
 -0.139   0.026  -0.007  -0.011   0.013


------------------------ aborting loop because EDIFF is reached ----------------------------------------


    CHARGE:  cpu time    0.0208: real time    0.0208
    FORLOC:  cpu time    0.0148: real time    0.0148
    FORNL :  cpu time    0.0222: real time    0.0223
    STRESS:  cpu time    0.1698: real time    0.1718
    FORCOR:  cpu time    0.1523: real time    0.1532
    FORHAR:  cpu time    0.0475: real time    0.0477
    MIXING:  cpu time    0.0068: real time    0.0069
    OFIELD:  cpu time    0.0001: real time    0.0001

  FORCE on cell =-STRESS in cart. coord.  units (eV):
  Direction    XX          YY          ZZ          XY          YZ          ZX
  --------------------------------------------------------------------------------------
  Alpha Z     0.23735     0.23735     0.23735
  Ewald      42.85512    42.16721    42.60370     1.80094    -0.71570    -2.42012
  Hartree    94.31401    95.69733    93.61025     0.58698    -0.28749    -0.91297
  E(xc)     -27.10716   -27.12514   -27.10214     0.00801    -0.00319    -0.01163
  Local    -195.91093  -197.08237  -194.86859    -2.07201     0.89885     2.97559
  n-local   -15.68641   -15.70607   -15.67355    -0.00803     0.00046    -0.00610
  augment     0.11911     0.12215     0.11877    -0.00234     0.00073     0.00238
  Kinetic   100.33573   101.21691   100.08638    -0.36971     0.15298     0.56658
  Fock        0.00000     0.00000     0.00000     0.00000     0.00000     0.00000
  -------------------------------------------------------------------------------------
  Total      -0.84319    -0.47263    -0.98783    -0.05615     0.04664     0.19373
  in kB      -1.32359    -0.74191    -1.55065    -0.08815     0.07322     0.30411
  external pressure =       -1.21 kB  Pullay stress =        0.00 kB

  kinetic pressure (ideal gas correction) =      0.00 kB
  total pressure  =     -1.21 kB
  Total+kin.    -1.324      -0.742      -1.551      -0.088       0.073       0.304

 VOLUME and BASIS-vectors are now :
 -----------------------------------------------------------------------------
  energy-cutoff  :      400.00
  volume of cell :     1020.66
      direct lattice vectors                 reciprocal lattice vectors
    10.108400985  0.000000000  0.000000000     0.098927615 -0.001189324  0.002308232
     0.119210661  9.915908874  0.000000000     0.000000000  0.100848043  0.001013667
    -0.238819775 -0.102351186 10.182747061     0.000000000  0.000000000  0.098205327

  length of vectors
    10.108400985  9.916625433 10.186061475     0.098961687  0.100853137  0.098205327


 FORCES acting on ions
    electron-ion (+dipol)            ewald-force                    non-local-force                 convergence-correction
 -----------------------------------------------------------------------------------------------
   -.173E+02 0.279E+02 0.407E+02   0.189E+02 -.307E+02 -.445E+02   -.179E+01 0.282E+01 0.418E+01   -.110E-04 0.269E-04 0.219E-04
   0.518E+02 -.621E+01 0.326E+01   -.568E+02 0.689E+01 -.366E+01   0.532E+01 -.622E+00 0.307E+00   0.348E-04 -.146E-05 0.163E-05
   -.244E+02 -.465E+02 0.122E+01   0.268E+02 0.512E+02 -.127E+01   -.255E+01 -.480E+01 0.144E+00   -.181E-04 -.398E-04 0.144E-05
   -.104E+02 0.240E+02 -.453E+02   0.115E+02 -.263E+02 0.496E+02   -.103E+01 0.244E+01 -.466E+01   -.594E-05 0.242E-04 -.243E-04
   0.260E+00 0.934E+00 0.148E+00   -.299E+00 -.105E+01 -.154E+00   -.713E-03 0.171E-01 0.205E-01   0.402E-05 0.306E-04 0.245E-05
 -----------------------------------------------------------------------------------------------
   0.435E-01 0.143E+00 0.980E-03   0.533E-14 0.000E+00 0.711E-14   -.439E-01 -.143E+00 -.991E-03   0.377E-05 0.404E-04 0.314E-05
 
 
 POSITION                                       TOTAL-FORCE (eV/Angst)
 -----------------------------------------------------------------------------------
      5.40310      3.99703      3.67219        -0.169786      0.023308      0.336541
      3.94023      4.71986      4.46548         0.306683      0.049942     -0.094177
      5.54774      5.56281      4.50816        -0.167178     -0.052411      0.086697
      5.25555      4.08067      5.49298         0.069301      0.072387     -0.343334
      5.03637      4.58789      4.53379        -0.039379     -0.093476      0.014266
 -----------------------------------------------------------------------------------
    total drift:                               -0.000359     -0.000250     -0.000008


--------------------------------------------------------------------------------------------------------



  FREE ENERGIE OF THE ION-ELECTRON SYSTEM (eV)
  ---------------------------------------------------
  free  energy   TOTEN  =       -24.01835374 eV

  energy  without entropy=      -24.01835374  energy(sigma->0) =      -24.01835374
 


--------------------------------------------------------------------------------------------------------


    POTLOK:  cpu time    0.1573: real time    0.1580


--------------------------------------------------------------------------------------------------------


 stress matrix after NEB project (eV)
     -0.84319     -0.05615      0.19373
     -0.05615     -0.47263      0.04664
      0.19373      0.04664     -0.98783
  FORCES: max atom, RMS     0.377664    0.291435
  FORCE total and by dimension    0.651669    0.343334
  Stress total and by dimension    1.412754    0.987830
           RANDOM_SEED =         581370762                0                0
           RANDOM_SEED =         581370762               30                0
   IONSTEP:  cpu time    0.0036: real time    0.0067

  ENERGY OF THE ELECTRON-ION-THERMOSTAT SYSTEM (eV)
  ---------------------------------------------------
% ion-electron   TOTEN  =       -24.018354  see above
  kinetic energy EKIN   =         0.000127
  kin. lattice  EKIN_LAT=         0.000000  (temperature    0.25 K)
  nose potential ES     =         0.000000
  nose kinetic   EPS    =         0.000000
  ---------------------------------------------------
  total energy   ETOTAL =       -24.018227 eV

  maximum distance moved by ions :      0.89E-04

    WAVPRE:  cpu time    0.0463: real time    0.0466
    FEWALD:  cpu time    0.0003: real time    0.0003
    ORTHCH:  cpu time    0.0088: real time    0.0088
     LOOP+:  cpu time    8.3695: real time    8.6179


--------------------------------------- Iteration      2(   1)  ---------------------------------------


    POTLOK:  cpu time    0.1556: real time    0.1563
    SETDIJ:  cpu time    0.0017: real time    0.0017
     EDDAV:  cpu time    0.2000: real time    0.2009
       DOS:  cpu time    0.0002: real time    0.0002
    CHARGE:  cpu time    0.0205: real time    0.0207
    MIXING:  cpu time    0.0053: real time    0.0068
    --------------------------------------------
      LOOP:  cpu time    0.3835: real time    0.3867

 eigenvalue-minimisations  :    80
 total energy-change (2. order) :-0.9831070E-03  (-0.1087857E-03)
 number of electron       8.0000000 magnetization 
 augmentation part        0.1831668 magnetization 

 Broyden mixing:
  rms(total) = 0.16832E-02    rms(broyden)= 0.16823E-02
  rms(prec ) = 0.22330E-02
  weight for this iteration     100.00

 Free energy of the ion-electron system (eV)
  ---------------------------------------------------
  alpha Z        PSCENC =         0.23734783
  Ewald energy   TEWEN  =       127.77377332
  -Hartree energ DENC   =      -283.70874599
  -exchange      EXHF   =         0.00000000
  -V(xc)+E(xc)   XCENC  =        24.65456122
  PAW double counting   =       455.25143808     -456.03197763
  entropy T*S    EENTRO =        -0.00000000
  eigenvalues    EBANDS =       -89.23748776
  atomic energy  EATOM  =       197.04175453
  Solvation  Ediel_sol  =         0.00000000
  ---------------------------------------------------
  free energy    TOTEN  =       -24.01933642 eV

  energy without entropy =      -24.01933642  energy(sigma->0) =      -24.01933642


--------------------------------------------------------------------------------------------------------




--------------------------------------- Iteration      2(   2)  ---------------------------------------


    POTLOK:  cpu time    0.1563: real time    0.1605
    SETDIJ:  cpu time    0.0017: real time    0.0017
    EDDIAG:  cpu time    0.0450: real time    0.0462
  RMM-DIIS:  cpu time    0.1742: real time    0.1790
    ORTHCH:  cpu time    0.0016: real time    0.0017
       DOS:  cpu time    0.0002: real time    0.0002
    CHARGE:  cpu time    0.0207: real time    0.0213
    MIXING:  cpu time    0.0048: real time    0.0048
    --------------------------------------------
      LOOP:  cpu time    0.4044: real time    0.4154

 eigenvalue-minimisations  :    64
 total energy-change (2. order) : 0.8584048E-05  (-0.2238592E-05)
 number of electron       8.0000000 magnetization 
 augmentation part        0.1831410 magnetization 

 Broyden mixing:
  rms(total) = 0.73530E-03    rms(broyden)= 0.73524E-03
  rms(prec ) = 0.91777E-03
  weight for this iteration     100.00

 eigenvalues of (default mixing * dielectric matrix)
  average eigenvalue GAMMA=   1.6449
  1.6449

 Free energy of the ion-electron system (eV)
  ---------------------------------------------------
  alpha Z        PSCENC =         0.23734783
  Ewald energy   TEWEN  =       127.77377332
  -Hartree energ DENC   =      -283.73882728
  -exchange      EXHF   =         0.00000000
  -V(xc)+E(xc)   XCENC  =        24.65618118
  PAW double counting   =       455.61105193     -456.39194166
  entropy T*S    EENTRO =        -0.00000000
  eigenvalues    EBANDS =       -89.20866767
  atomic energy  EATOM  =       197.04175453
  Solvation  Ediel_sol  =         0.00000000
  ---------------------------------------------------
  free energy    TOTEN  =       -24.01932783 eV

  energy without entropy =      -24.01932783  energy(sigma->0) =      -24.01932783


--------------------------------------------------------------------------------------------------------




--------------------------------------- Iteration      2(   3)  ---------------------------------------


    POTLOK:  cpu time    0.1557: real time    0.1604
    SETDIJ:  cpu time    0.0017: real time    0.0017
    EDDIAG:  cpu time    0.0446: real time    0.0456
  RMM-DIIS:  cpu time    0.1720: real time    0.1778
    ORTHCH:  cpu time    0.0017: real time    0.0017
       DOS:  cpu time    0.0002: real time    0.0002
    CHARGE:  cpu time    0.0206: real time    0.0211
    MIXING:  cpu time    0.0049: real time    0.0050
    --------------------------------------------
      LOOP:  cpu time    0.4015: real time    0.4135

 eigenvalue-minimisations  :    64
 total energy-change (2. order) :-0.1708470E-06  (-0.1431897E-05)
 number of electron       8.0000000 magnetization 
 augmentation part        0.1831111 magnetization 

 Broyden mixing:
  rms(total) = 0.33621E-03    rms(broyden)= 0.33599E-03
  rms(prec ) = 0.38968E-03
  weight for this iteration     100.00

 eigenvalues of (default mixing * dielectric matrix)
  average eigenvalue GAMMA=   1.3945
  1.3945  1.3945

 Free energy of the ion-electron system (eV)
  ---------------------------------------------------
  alpha Z        PSCENC =         0.23734783
  Ewald energy   TEWEN  =       127.77377332
  -Hartree energ DENC   =      -283.75646460
  -exchange      EXHF   =         0.00000000
  -V(xc)+E(xc)   XCENC  =        24.65715569
  PAW double counting   =       455.92556702     -456.70668384
  entropy T*S    EENTRO =        -0.00000000
  eigenvalues    EBANDS =       -89.19177796
  atomic energy  EATOM  =       197.04175453
  Solvation  Ediel_sol  =         0.00000000
  ---------------------------------------------------
  free energy    TOTEN  =       -24.01932800 eV

  energy without entropy =      -24.01932800  energy(sigma->0) =      -24.01932800


--------------------------------------------------------------------------------------------------------




--------------------------------------- Iteration      2(   4)  ---------------------------------------


    POTLOK:  cpu time    0.1547: real time    0.1600
    SETDIJ:  cpu time    0.0019: real time    0.0019
    EDDIAG:  cpu time    0.0442: real time    0.0453
  RMM-DIIS:  cpu time    0.1404: real time    0.1448
    ORTHCH:  cpu time    0.0017: real time    0.0017
       DOS:  cpu time    0.0002: real time    0.0002
    --------------------------------------------
      LOOP:  cpu time    0.3430: real time    0.3538

 eigenvalue-minimisations  :    48
 total energy-change (2. order) : 0.5925708E-07  (-0.3861547E-07)
 number of electron       8.0000000 magnetization 
 augmentation part        0.1831111 magnetization 

 Free energy of the ion-electron system (eV)
  ---------------------------------------------------
  alpha Z        PSCENC =         0.23734783
  Ewald energy   TEWEN  =       127.77377332
  -Hartree energ DENC   =      -283.75159776
  -exchange      EXHF   =         0.00000000
  -V(xc)+E(xc)   XCENC  =        24.65695660
  PAW double counting   =       455.97608914     -456.75714259
  entropy T*S    EENTRO =        -0.00000000
  eigenvalues    EBANDS =       -89.19650901
  atomic energy  EATOM  =       197.04175453
  Solvation  Ediel_sol  =         0.00000000
  ---------------------------------------------------
  free energy    TOTEN  =       -24.01932795 eV

  energy without entropy =      -24.01932795  energy(sigma->0) =      -24.01932795


--------------------------------------------------------------------------------------------------------




 average (electrostatic) potential at core
  the test charge radii are     0.5201  0.6991
  (the norm of the test charge is              1.0000)
       1 -41.4394       2 -41.4418       3 -41.4700       4 -41.4377       5 -58.0110
 
 
 
 E-fermi :  -8.2108     XC(G=0):  -0.7019     alpha+bet : -0.2064


 k-point     1 :       0.2500    0.2500    0.2500
  band No.  band energies     occupation 
      1     -16.8258      2.00000
      2      -9.4091      2.00000
      3      -9.2305      2.00000
      4      -9.1328      2.00000
      5      -0.3289      0.00000
      6       0.5353      0.00000
      7       0.6421      0.00000
      8       0.6826      0.00000

 k-point     2 :      -0.2500    0.2500    0.2500
  band No.  band energies     occupation 
      1     -16.8258      2.00000
      2      -9.4093      2.00000
      3      -9.2304      2.00000
      4      -9.1329      2.00000
      5      -0.3308      0.00000
      6       0.5375      0.00000
      7       0.6505      0.00000
      8       0.6812      0.00000

 k-point     3 :       0.2500   -0.2500    0.2500
  band No.  band energies     occupation 
      1     -16.8258      2.00000
      2      -9.4093      2.00000
      3      -9.2305      2.00000
      4      -9.1329      2.00000
      5      -0.3285      0.00000
      6       0.5324      0.00000
      7       0.6389      0.00000
      8       0.6824      0.00000

 k-point     4 :      -0.2500   -0.2500    0.2500
  band No.  band energies     occupation 
      1     -16.8257      2.00000
      2      -9.4091      2.00000
      3      -9.2304      2.00000
      4      -9.1328      2.00000
      5      -0.3350      0.00000
      6       0.5480      0.00000
      7       0.6656      0.00000
      8       0.6907      0.00000


--------------------------------------------------------------------------------------------------------


 soft charge-density along one line, spin component           1
         0         1         2         3         4         5         6         7         8         9
 total charge-density along one line
 
 pseudopotential strength for first ion, spin component:           1
 -2.341  -4.033  -0.001  -0.001   0.001
 -4.033  -6.863  -0.003  -0.004   0.002
 -0.001  -0.003  -0.338   0.002  -0.001
 -0.001  -0.004   0.002  -0.336  -0.001
  0.001   0.002  -0.001  -0.001  -0.339
 total augmentation occupancy for first ion, spin component:           1
  3.509  -0.633   0.223   0.327  -0.139
 -0.633   0.128  -0.042  -0.060   0.026
  0.223  -0.042   0.021   0.017  -0.007
  0.327  -0.060   0.017   0.034  -0.011
 -0.139   0.026  -0.007  -0.011   0.013


------------------------ aborting loop because EDIFF is reached ----------------------------------------


    CHARGE:  cpu time    0.0205: real time    0.0213
    FORLOC:  cpu time    0.0143: real time    0.0145
    FORNL :  cpu time    0.0211: real time    0.0214
    STRESS:  cpu time    0.1606: real time    0.1627
    FORCOR:  cpu time    0.1515: real time    0.1552
    FORHAR:  cpu time    0.0492: real time    0.0505
    MIXING:  cpu time    0.0060: real time    0.0060
    OFIELD:  cpu time    0.0000: real time    0.0000

  FORCE on cell =-STRESS in cart. coord.  units (eV):
  Direction    XX          YY          ZZ          XY          YZ          ZX
  --------------------------------------------------------------------------------------
  Alpha Z     0.23735     0.23735     0.23735
  Ewald      42.88974    42.25258    42.63141     1.76106    -0.70251    -2.37987
  Hartree    94.35205    95.75690    93.64116     0.58014    -0.28415    -0.90088
  E(xc)     -27.11458   -27.13214   -27.10970     0.00787    -0.00312    -0.01137
  Local    -195.97770  -197.21778  -194.91891    -2.03502     0.88482     2.92936
  n-local   -15.70200   -15.72064   -15.68986    -0.00737     0.00041    -0.00593
  augment     0.11883     0.12187     0.11845    -0.00225     0.00071     0.00234
  Kinetic   100.38370   101.24588   100.14027    -0.36361     0.14975     0.55505
  Fock        0.00000     0.00000     0.00000     0.00000     0.00000     0.00000
[...]
      5.53613      5.56118      4.51477         0.001327      0.099576      0.026841
      5.26241      4.08285      5.47279         0.097399     -0.138083      0.179260
      5.03623      4.58765      4.53389         0.052094      0.169754      0.011619
 -----------------------------------------------------------------------------------
    total drift:                               -0.000458     -0.000277      0.000011


--------------------------------------------------------------------------------------------------------



  FREE ENERGIE OF THE ION-ELECTRON SYSTEM (eV)
  ---------------------------------------------------
  free  energy   TOTEN  =       -24.02621766 eV

  energy  without entropy=      -24.02621766  energy(sigma->0) =      -24.02621766
 
 d Force =-0.6559290E-03[-0.101E-02,-0.304E-03]  d Energy =-0.6541340E-03-0.179E-05
 d Force =-0.4333763E+00[-0.434E+00,-0.433E+00]  d Ewald  =-0.4333771E+00 0.832E-06


--------------------------------------------------------------------------------------------------------


    POTLOK:  cpu time    0.1471: real time    0.1501


--------------------------------------------------------------------------------------------------------


 stress matrix after NEB project (eV)
     -0.11823     -0.10964      0.05683
     -0.10964     -0.10146      0.02310
      0.05683      0.02310     -0.08152
  FORCES: max atom, RMS     0.255699    0.209349
  FORCE total and by dimension    0.468120    0.210289
  Stress total and by dimension    0.249967    0.118228
           RANDOM_SEED =         581370762               30                0
   IONSTEP:  cpu time    0.0002: real time    0.0002

  ENERGY OF THE ELECTRON-ION-THERMOSTAT SYSTEM (eV)
  ---------------------------------------------------
% ion-electron   TOTEN  =       -24.026218  see above
  kinetic energy EKIN   =         0.007902
  kin. lattice  EKIN_LAT=         0.000000  (temperature   15.28 K)
  nose potential ES     =         0.000000
  nose kinetic   EPS    =         0.000000
  ---------------------------------------------------
  total energy   ETOTAL =       -24.018316 eV

  maximum distance moved by ions :      0.34E-03

    WAVPRE:  cpu time    0.0507: real time    0.0518
    FEWALD:  cpu time    0.0011: real time    0.0011
    ORTHCH:  cpu time    0.0087: real time    0.0089
 Prediction of Wavefunctions ALPHA= 2.200 BETA=-1.238
     LOOP+:  cpu time    2.1594: real time    2.2017


--------------------------------------- Iteration     10(   1)  ---------------------------------------


    POTLOK:  cpu time    0.1427: real time    0.1453
    SETDIJ:  cpu time    0.0018: real time    0.0018
     EDDAV:  cpu time    0.1680: real time    0.1716
       DOS:  cpu time    0.0003: real time    0.0003
    CHARGE:  cpu time    0.0246: real time    0.0251
    MIXING:  cpu time    0.0056: real time    0.0056
    --------------------------------------------
      LOOP:  cpu time    0.3430: real time    0.3498

 eigenvalue-minimisations  :    64
 total energy-change (2. order) : 0.8025766E-03  (-0.9180038E-05)
 number of electron       8.0000003 magnetization 
 augmentation part        0.1872812 magnetization 

 Broyden mixing:
  rms(total) = 0.12694E-03    rms(broyden)= 0.12683E-03
  rms(prec ) = 0.17917E-03
  weight for this iteration     100.00

 Free energy of the ion-electron system (eV)
  ---------------------------------------------------
  alpha Z        PSCENC =         0.23734783
  Ewald energy   TEWEN  =       131.29204534
  -Hartree energ DENC   =      -286.85473465
  -exchange      EXHF   =         0.00000000
  -V(xc)+E(xc)   XCENC  =        24.82117390
  PAW double counting   =       477.30665868     -478.10011297
  entropy T*S    EENTRO =        -0.00000000
  eigenvalues    EBANDS =       -89.76954783
  atomic energy  EATOM  =       197.04175453
  Solvation  Ediel_sol  =         0.00000000
  ---------------------------------------------------
  free energy    TOTEN  =       -24.02541516 eV

  energy without entropy =      -24.02541516  energy(sigma->0) =      -24.02541516


--------------------------------------------------------------------------------------------------------




--------------------------------------- Iteration     10(   2)  ---------------------------------------


    POTLOK:  cpu time    0.1456: real time    0.1487
    SETDIJ:  cpu time    0.0017: real time    0.0017
    EDDIAG:  cpu time    0.0444: real time    0.0454
  RMM-DIIS:  cpu time    0.1419: real time    0.1460
    ORTHCH:  cpu time    0.0015: real time    0.0015
       DOS:  cpu time    0.0002: real time    0.0002
    CHARGE:  cpu time    0.0207: real time    0.0213
    MIXING:  cpu time    0.0048: real time    0.0049
    --------------------------------------------
      LOOP:  cpu time    0.3609: real time    0.3696

 eigenvalue-minimisations  :    48
 total energy-change (2. order) :-0.1030412E-05  (-0.1157335E-06)
 number of electron       8.0000003 magnetization 
 augmentation part        0.1872866 magnetization 

 Broyden mixing:
  rms(total) = 0.73636E-04    rms(broyden)= 0.73562E-04
  rms(prec ) = 0.11004E-03
  weight for this iteration     100.00

 eigenvalues of (default mixing * dielectric matrix)
  average eigenvalue GAMMA=   1.1750
  1.1750

 Free energy of the ion-electron system (eV)
  ---------------------------------------------------
  alpha Z        PSCENC =         0.23734783
  Ewald energy   TEWEN  =       131.29204534
  -Hartree energ DENC   =      -286.85232255
  -exchange      EXHF   =         0.00000000
  -V(xc)+E(xc)   XCENC  =        24.82105540
  PAW double counting   =       477.30383953     -478.09725851
  entropy T*S    EENTRO =        -0.00000000
  eigenvalues    EBANDS =       -89.77187776
  atomic energy  EATOM  =       197.04175453
  Solvation  Ediel_sol  =         0.00000000
  ---------------------------------------------------
  free energy    TOTEN  =       -24.02541619 eV

  energy without entropy =      -24.02541619  energy(sigma->0) =      -24.02541619


--------------------------------------------------------------------------------------------------------




--------------------------------------- Iteration     10(   3)  ---------------------------------------


    POTLOK:  cpu time    0.1437: real time    0.1477
    SETDIJ:  cpu time    0.0017: real time    0.0017
    EDDIAG:  cpu time    0.0446: real time    0.0459
  RMM-DIIS:  cpu time    0.1395: real time    0.1427
    ORTHCH:  cpu time    0.0015: real time    0.0015
       DOS:  cpu time    0.0002: real time    0.0002
    CHARGE:  cpu time    0.0208: real time    0.0212
    MIXING:  cpu time    0.0049: real time    0.0049
    --------------------------------------------
      LOOP:  cpu time    0.3568: real time    0.3658

 eigenvalue-minimisations  :    48
 total energy-change (2. order) :-0.9913645E-06  (-0.2390017E-07)
 number of electron       8.0000003 magnetization 
 augmentation part        0.1872884 magnetization 

 Broyden mixing:
  rms(total) = 0.32258E-04    rms(broyden)= 0.32224E-04
  rms(prec ) = 0.61650E-04
  weight for this iteration     100.00

 eigenvalues of (default mixing * dielectric matrix)
  average eigenvalue GAMMA=   1.4180
  1.4180  1.4180

 Free energy of the ion-electron system (eV)
  ---------------------------------------------------
  alpha Z        PSCENC =         0.23734783
  Ewald energy   TEWEN  =       131.29204534
  -Hartree energ DENC   =      -286.85072662
  -exchange      EXHF   =         0.00000000
  -V(xc)+E(xc)   XCENC  =        24.82099820
  PAW double counting   =       477.29583181     -478.08923604
  entropy T*S    EENTRO =        -0.00000000
  eigenvalues    EBANDS =       -89.77343224
  atomic energy  EATOM  =       197.04175453
  Solvation  Ediel_sol  =         0.00000000
  ---------------------------------------------------
  free energy    TOTEN  =       -24.02541718 eV

  energy without entropy =      -24.02541718  energy(sigma->0) =      -24.02541718


--------------------------------------------------------------------------------------------------------




--------------------------------------- Iteration     10(   4)  ---------------------------------------


    POTLOK:  cpu time    0.1437: real time    0.1465
    SETDIJ:  cpu time    0.0019: real time    0.0019
    EDDIAG:  cpu time    0.0444: real time    0.0452
  RMM-DIIS:  cpu time    0.1387: real time    0.1481
    ORTHCH:  cpu time    0.0015: real time    0.0015
       DOS:  cpu time    0.0002: real time    0.0002
    --------------------------------------------
      LOOP:  cpu time    0.3304: real time    0.3435

 eigenvalue-minimisations  :    48
 total energy-change (2. order) :-0.6315263E-06  (-0.6672577E-08)
 number of electron       8.0000003 magnetization 
 augmentation part        0.1872884 magnetization 

 Free energy of the ion-electron system (eV)
  ---------------------------------------------------
  alpha Z        PSCENC =         0.23734783
  Ewald energy   TEWEN  =       131.29204534
  -Hartree energ DENC   =      -286.85060332
  -exchange      EXHF   =         0.00000000
  -V(xc)+E(xc)   XCENC  =        24.82101016
  PAW double counting   =       477.29046062     -478.08386794
  entropy T*S    EENTRO =        -0.00000000
  eigenvalues    EBANDS =       -89.77356504
  atomic energy  EATOM  =       197.04175453
  Solvation  Ediel_sol  =         0.00000000
  ---------------------------------------------------
  free energy    TOTEN  =       -24.02541781 eV

  energy without entropy =      -24.02541781  energy(sigma->0) =      -24.02541781


--------------------------------------------------------------------------------------------------------




 average (electrostatic) potential at core
  the test charge radii are     0.5201  0.6991
  (the norm of the test charge is              1.0000)
       1 -41.5571       2 -41.5457       3 -41.5037       4 -41.5524       5 -57.9190
 
 
 
 E-fermi :  -8.3253     XC(G=0):  -0.6616     alpha+bet : -0.2064


 k-point     1 :       0.2500    0.2500    0.2500
  band No.  band energies     occupation 
      1     -16.9387      2.00000
      2      -9.3558      2.00000
      3      -9.3110      2.00000
      4      -9.2813      2.00000
      5      -0.2982      0.00000
      6       0.5761      0.00000
      7       0.6632      0.00000
      8       0.7139      0.00000

 k-point     2 :      -0.2500    0.2500    0.2500
  band No.  band energies     occupation 
      1     -16.9387      2.00000
      2      -9.3559      2.00000
      3      -9.3109      2.00000
      4      -9.2814      2.00000
      5      -0.3003      0.00000
      6       0.5779      0.00000
      7       0.6750      0.00000
      8       0.7105      0.00000

 k-point     3 :       0.2500   -0.2500    0.2500
  band No.  band energies     occupation 
      1     -16.9387      2.00000
      2      -9.3559      2.00000
      3      -9.3110      2.00000
      4      -9.2813      2.00000
      5      -0.2980      0.00000
      6       0.5728      0.00000
      7       0.6620      0.00000
      8       0.7131      0.00000

 k-point     4 :      -0.2500   -0.2500    0.2500
  band No.  band energies     occupation 
      1     -16.9386      2.00000
      2      -9.3558      2.00000
      3      -9.3109      2.00000
      4      -9.2812      2.00000
      5      -0.3042      0.00000
      6       0.5854      0.00000
      7       0.6897      0.00000
      8       0.7210      0.00000


--------------------------------------------------------------------------------------------------------


 soft charge-density along one line, spin component           1
         0         1         2         3         4         5         6         7         8         9
 total charge-density along one line
 
 pseudopotential strength for first ion, spin component:           1
 -2.341  -4.035  -0.001  -0.001   0.001
 -4.035  -6.867  -0.003  -0.004   0.002
 -0.001  -0.003  -0.337   0.002  -0.001
 -0.001  -0.004   0.002  -0.335  -0.001
  0.001   0.002  -0.001  -0.001  -0.338
 total augmentation occupancy for first ion, spin component:           1
  3.578  -0.643   0.241   0.340  -0.144
 -0.643   0.130  -0.045  -0.063   0.026
  0.241  -0.045   0.023   0.019  -0.008
  0.340  -0.063   0.019   0.036  -0.011
 -0.144   0.026  -0.008  -0.011   0.014


------------------------ aborting loop because EDIFF is reached ----------------------------------------


    CHARGE:  cpu time    0.0214: real time    0.0216
    FORLOC:  cpu time    0.0144: real time    0.0144
    FORNL :  cpu time    0.0213: real time    0.0215
    STRESS:  cpu time    0.1613: real time    0.1626
    FORCOR:  cpu time    0.1523: real time    0.1554
    FORHAR:  cpu time    0.0496: real time    0.0511
    MIXING:  cpu time    0.0051: real time    0.0051
    OFIELD:  cpu time    0.0000: real time    0.0000

  FORCE on cell =-STRESS in cart. coord.  units (eV):
  Direction    XX          YY          ZZ          XY          YZ          ZX
  --------------------------------------------------------------------------------------
  Alpha Z     0.23735     0.23735     0.23735
  Ewald      43.46997    45.00707    42.81495     0.34270    -0.21278    -0.79909
  Hartree    95.20402    97.37911    94.26597     0.28733    -0.15596    -0.44957
  E(xc)     -27.29542   -27.29884   -27.29462     0.00206    -0.00061    -0.00245
  Local    -197.30523  -201.22442  -195.60686    -0.64741     0.35930     1.16295
  n-local   -16.07551   -16.06823   -16.08146     0.00802    -0.00064    -0.00082
  augment     0.11198     0.11385     0.11087     0.00037     0.00003     0.00061
  Kinetic   101.60970   101.77803   101.56749    -0.09721     0.02775     0.12050
  Fock        0.00000     0.00000     0.00000     0.00000     0.00000     0.00000
  -------------------------------------------------------------------------------------
  Total      -0.04313    -0.07608     0.01368    -0.10414     0.01709     0.03214
  in kB      -0.06771    -0.11943     0.02148    -0.16347     0.02683     0.05045
  external pressure =       -0.06 kB  Pullay stress =        0.00 kB

  kinetic pressure (ideal gas correction) =      0.01 kB
  total pressure  =     -0.05 kB
  Total+kin.    -0.059      -0.117       0.034      -0.161       0.024       0.041

 VOLUME and BASIS-vectors are now :
 -----------------------------------------------------------------------------
  energy-cutoff  :      400.00
  volume of cell :     1020.66
      direct lattice vectors                 reciprocal lattice vectors
    10.108400985  0.000000000  0.000000000     0.098927615 -0.001189324  0.002308232
     0.119210661  9.915908874  0.000000000     0.000000000  0.100848043  0.001013667
    -0.238819775 -0.102351186 10.182747061     0.000000000  0.000000000  0.098205327

  length of vectors
    10.108400985  9.916625433 10.186061475     0.098961687  0.100853137  0.098205327


 FORCES acting on ions
    electron-ion (+dipol)            ewald-force                    non-local-force                 convergence-correction
 -----------------------------------------------------------------------------------------------
   -.174E+02 0.292E+02 0.412E+02   0.193E+02 -.324E+02 -.457E+02   -.184E+01 0.307E+01 0.434E+01   0.175E-04 0.316E-04 0.504E-05
   0.528E+02 -.675E+01 0.383E+01   -.586E+02 0.751E+01 -.427E+01   0.555E+01 -.708E+00 0.396E+00   0.386E-05 0.872E-05 0.528E-05
   -.242E+02 -.472E+02 0.860E+00   0.267E+02 0.523E+02 -.939E+00   -.252E+01 -.492E+01 0.933E-01   0.198E-04 -.178E-04 -.114E-05
   -.112E+02 0.248E+02 -.459E+02   0.125E+02 -.275E+02 0.510E+02   -.117E+01 0.261E+01 -.484E+01   0.157E-04 0.242E-04 0.682E-05
   -.423E-01 -.118E+00 0.476E-01   0.664E-01 0.194E+00 -.481E-01   0.346E-01 0.114E+00 0.110E-01   0.932E-04 0.513E-04 0.147E-04
 -----------------------------------------------------------------------------------------------
   -.523E-01 -.156E+00 -.445E-02   -.888E-14 0.000E+00 0.694E-17   0.516E-01 0.155E+00 0.440E-02   0.150E-03 0.980E-04 0.307E-04
 
 
 POSITION                                       TOTAL-FORCE (eV/Angst)
 -----------------------------------------------------------------------------------
      5.39096      3.99309      3.69499         0.085362     -0.199623     -0.215568
      3.95898      4.72576      4.45594        -0.262004      0.051747     -0.044610
      5.53402      5.56151      4.51615         0.027134      0.111948      0.014582
      5.26428      4.08238      5.47024         0.090204     -0.153870      0.235012
      5.03624      4.58769      4.53392         0.058817      0.189510      0.010561
 -----------------------------------------------------------------------------------
    total drift:                               -0.000487     -0.000288     -0.000022


--------------------------------------------------------------------------------------------------------



  FREE ENERGIE OF THE ION-ELECTRON SYSTEM (eV)
  ---------------------------------------------------
  free  energy   TOTEN  =       -24.02541781 eV

  energy  without entropy=      -24.02541781  energy(sigma->0) =      -24.02541781
 
 d Force =-0.8012667E-03[-0.105E-02,-0.550E-03]  d Energy =-0.7998453E-03-0.142E-05
 d Force =-0.3202715E+00[-0.320E+00,-0.321E+00]  d Ewald  =-0.3202726E+00 0.107E-05


--------------------------------------------------------------------------------------------------------


    POTLOK:  cpu time    0.1475: real time    0.1526


--------------------------------------------------------------------------------------------------------


 stress matrix after NEB project (eV)
     -0.04313     -0.10414      0.03214
     -0.10414     -0.07608      0.01709
      0.03214      0.01709      0.01368
  FORCES: max atom, RMS     0.305950    0.247762
  FORCE total and by dimension    0.554012    0.262004
  Stress total and by dimension    0.179378    0.104140
           RANDOM_SEED =         581370762               30                0
   IONSTEP:  cpu time    0.0002: real time    0.0002

  ENERGY OF THE ELECTRON-ION-THERMOSTAT SYSTEM (eV)
  ---------------------------------------------------
% ion-electron   TOTEN  =       -24.025418  see above
  kinetic energy EKIN   =         0.007125
  kin. lattice  EKIN_LAT=         0.000000  (temperature   13.78 K)
  nose potential ES     =         0.000000
  nose kinetic   EPS    =         0.000000
  ---------------------------------------------------
  total energy   ETOTAL =       -24.018293 eV

  maximum distance moved by ions :      0.32E-03


 mean value of Nose-termostat <S>:     1.000 mean value of <T> :    10.772
 mean temperature <T/S>/<1/S>  :    10.772

    WAVPRE:  cpu time    0.0542: real time    0.0556
    FEWALD:  cpu time    0.0007: real time    0.0007
    ORTHCH:  cpu time    0.0086: real time    0.0087
 Prediction of Wavefunctions ALPHA= 2.122 BETA=-1.150
    POTLOK:  cpu time    0.1483: real time    0.1559
    EDDIAG:  cpu time    0.0445: real time    0.0457
     LOOP+:  cpu time    2.2252: real time    2.2850
    4ORBIT:  cpu time    0.0000: real time    0.0008

 total amount of memory used by VASP MPI-rank0    56640. kBytes
=======================================================================

   base      :      30000. kBytes
   nonl-proj :       2746. kBytes
   fftplans  :       8576. kBytes
   grid      :      13527. kBytes
   one-center:          6. kBytes
   wavefun   :       1785. kBytes
 
  
  
 General timing and accounting informations for this job:
 ========================================================
  
                  Total CPU time used (sec):       30.200
                            User time (sec):       27.911
                          System time (sec):        2.289
                         Elapsed time (sec):       31.728
  
                   Maximum memory used (kb):      176488.
                   Average memory used (kb):           0.
  
                          Minor page faults:       251210
                          Major page faults:          117
                 Voluntary context switches:          580
