unknown system                          
           1
    10.108401    0.000000    0.000000
     0.119211    9.915909    0.000000
    -0.238820   -0.102351   10.182747
   H    C 
   4   1
Direct configuration=     1
   0.53823854  0.40681496  0.36062909
   0.39449197  0.48051498  0.43853435
   0.55261467  0.56556859  0.44272543
   0.52774500  0.41709529  0.53944002
   0.50324458  0.46727547  0.44524255
Direct configuration=     2
   0.53819982  0.40682073  0.36070948
   0.39456459  0.48052649  0.43851139
   0.55257568  0.56555545  0.44274603
   0.52775956  0.41711178  0.53935855
   0.50324379  0.46727375  0.44524284
Direct configuration=     3
   0.53812459  0.40683044  0.36086459
   0.39470434  0.48055021  0.43846632
   0.55249900  0.56553160  0.44278671
   0.52778923  0.41714276  0.53920103
   0.50324233  0.46727037  0.44524341
Direct configuration=     4
   0.53801699  0.40683934  0.36108502
   0.39490115  0.48058658  0.43839954
   0.55238744  0.56550011  0.44284656
   0.52783524  0.41718394  0.53897739
   0.50324036  0.46726580  0.44524425
Direct configuration=     5
   0.53788296  0.40684065  0.36135726
   0.39514060  0.48063624  0.43831165
   0.55224514  0.56546553  0.44292428
   0.52789932  0.41722920  0.53870190
   0.50323810  0.46726067  0.44524537
Direct configuration=     6
   0.53772991  0.40682611  0.36166451
   0.39540482  0.48069985  0.43820351
   0.55207735  0.56543340  0.44301817
   0.52798349  0.41727105  0.53839227
   0.50323580  0.46725577  0.44524675
Direct configuration=     7
   0.53756614  0.40678684  0.36198800
   0.39567405  0.48077800  0.43807629
   0.55189011  0.56540974  0.44312616
   0.52808974  0.41730127  0.53806824
   0.50323377  0.46725199  0.44524840
Direct configuration=     8
   0.53740024  0.40671421  0.36230842
   0.39592817  0.48087096  0.43793149
   0.55168985  0.56540042  0.44324589
   0.52821969  0.41731172  0.53775009
   0.50323227  0.46725020  0.44525030
Direct configuration=     9
   0.53724060  0.40660062  0.36260707
   0.39614805  0.48097861  0.43777099
   0.55148325  0.56541094  0.44337477
   0.52837431  0.41729496  0.53745733
   0.50323158  0.46725122  0.44525244
Direct configuration=    10
   0.53709469  0.40644055  0.36286752
   0.39631728  0.48110022  0.43759712
   0.55127684  0.56544575  0.44351000
   0.52855358  0.41724504  0.53720704
   0.50323190  0.46725567  0.44525481
