    5    5   10    1
  0.1924150E+03  0.9719245E-09  0.1020550E-08  0.9704556E-09  0.5000000E-15
  1.000000000000000E-004
  CAR 
 unknown system                          
      8      4      8
 
  0.2500000E+00  0.2500000E+00  0.2500000E+00  0.2500000E+00
    1      -16.750852   1.000000
    2       -9.351463   1.000000
    3       -9.173400   1.000000
    4       -9.118985   1.000000
    5       -0.331057   0.000000
    6        0.552121   0.000000
    7        0.681933   0.000000
    8        0.711079   0.000000
 
 -0.2500000E+00  0.2500000E+00  0.2500000E+00  0.2500000E+00
    1      -16.750808   1.000000
    2       -9.351449   1.000000
    3       -9.173298   1.000000
    4       -9.118966   1.000000
    5       -0.333415   0.000000
    6        0.534065   0.000000
    7        0.696877   0.000000
    8        0.722152   0.000000
 
  0.2500000E+00 -0.2500000E+00  0.2500000E+00  0.2500000E+00
    1      -16.750838   1.000000
    2       -9.351544   1.000000
    3       -9.173459   1.000000
    4       -9.119154   1.000000
    5       -0.332722   0.000000
    6        0.544303   0.000000
    7        0.690800   0.000000
    8        0.716998   0.000000
 
 -0.2500000E+00 -0.2500000E+00  0.2500000E+00  0.2500000E+00
    1      -16.750867   1.000000
    2       -9.351625   1.000000
    3       -9.173432   1.000000
    4       -9.119082   1.000000
    5       -0.340203   0.000000
    6        0.570150   0.000000
    7        0.700261   0.000000
    8        0.736342   0.000000
