       N       E                     dE             d eps       ncg     rms          rms(c)
DAV:   1     0.133443590086E+02    0.13344E+02   -0.21079E+03    96   0.431E+02
DAV:   2    -0.232233311866E+02   -0.36568E+02   -0.36568E+02    64   0.114E+02
DAV:   3    -0.276128233140E+02   -0.43895E+01   -0.43895E+01    80   0.453E+01
DAV:   4    -0.277536067306E+02   -0.14078E+00   -0.14078E+00   128   0.828E+00
DAV:   5    -0.277536517866E+02   -0.45056E-04   -0.45056E-04   104   0.163E-01    0.904E+00
RMM:   6    -0.246542152309E+02    0.30994E+01   -0.58284E+00    64   0.149E+01    0.443E+00
RMM:   7    -0.241258937355E+02    0.52832E+00   -0.13920E+00    64   0.686E+00    0.234E+00
RMM:   8    -0.239769886326E+02    0.14891E+00   -0.16318E-01    64   0.292E+00    0.224E-01
RMM:   9    -0.239712174926E+02    0.57711E-02   -0.11482E-02    64   0.712E-01    0.199E-01
RMM:  10    -0.239654273801E+02    0.57901E-02   -0.23973E-02    64   0.851E-01    0.287E-01
RMM:  11    -0.239657321844E+02   -0.30480E-03   -0.59901E-03    64   0.493E-01    0.578E-02
RMM:  12    -0.239757803451E+02   -0.10048E-01   -0.48495E-03    64   0.435E-01    0.131E-01
RMM:  13    -0.239761128527E+02   -0.33251E-03   -0.81102E-04    64   0.163E-01    0.622E-02
RMM:  14    -0.239789390473E+02   -0.28262E-02   -0.18991E-03    64   0.269E-01    0.389E-02
RMM:  15    -0.239792221643E+02   -0.28312E-03   -0.20397E-04    64   0.850E-02    0.817E-03
RMM:  16    -0.239794290370E+02   -0.20687E-03   -0.38194E-05    64   0.420E-02    0.576E-03
RMM:  17    -0.239794655918E+02   -0.36555E-04   -0.27668E-05    64   0.291E-02    0.585E-03
RMM:  18    -0.239794770584E+02   -0.11467E-04   -0.80109E-06    64   0.159E-02    0.121E-03
RMM:  19    -0.239794805891E+02   -0.35307E-05   -0.22863E-07    44   0.360E-03    0.259E-04
RMM:  20    -0.239794816031E+02   -0.10140E-05   -0.20752E-07    48   0.282E-03    0.579E-04
RMM:  21    -0.239794831242E+02   -0.15211E-05   -0.45361E-07    48   0.431E-03    0.118E-03
RMM:  22    -0.239794833404E+02   -0.21616E-06   -0.59603E-08    44   0.193E-03
    1 T=     2. E= -.23978493E+02 F= -.23979483E+02 E0= -.23979483E+02  EK= 0.99001E-03 SP= 0.00E+00 SK= 0.00E+00
       N       E                     dE             d eps       ncg     rms          rms(c)
DAV:   1    -0.239870690288E+02   -0.75859E-02   -0.90753E-03    64   0.894E-01    0.481E-02
RMM:   2    -0.239870241307E+02    0.44898E-04   -0.25594E-04    64   0.134E-01    0.263E-02
RMM:   3    -0.239870181030E+02    0.60277E-05   -0.11666E-04    64   0.680E-02    0.101E-02
RMM:   4    -0.239870167612E+02    0.13418E-05   -0.42479E-06    64   0.151E-02    0.592E-03
RMM:   5    -0.239870182251E+02   -0.14639E-05   -0.65077E-06    64   0.159E-02    0.377E-03
RMM:   6    -0.239870177460E+02    0.47916E-06   -0.35504E-06    60   0.110E-02
    2 T=    16. E= -.23978664E+02 F= -.23987018E+02 E0= -.23987018E+02  EK= 0.83536E-02 SP= 0.00E+00 SK= 0.00E+00
       N       E                     dE             d eps       ncg     rms          rms(c)
DAV:   1    -0.239993836468E+02   -0.12365E-01   -0.62956E-03    64   0.807E-01    0.149E-02
RMM:   2    -0.239994157661E+02   -0.32119E-04   -0.35492E-04    64   0.156E-01    0.378E-03
RMM:   3    -0.239994186540E+02   -0.28879E-05   -0.13776E-05    64   0.324E-02    0.426E-03
RMM:   4    -0.239994185946E+02    0.59465E-07   -0.84529E-07    48   0.907E-03
    3 T=    40. E= -.23978928E+02 F= -.23999419E+02 E0= -.23999419E+02  EK= 0.20491E-01 SP= 0.00E+00 SK= 0.00E+00
       N       E                     dE             d eps       ncg     rms          rms(c)
DAV:   1    -0.240124530363E+02   -0.13034E-01   -0.19273E-03    64   0.359E-01    0.133E-02
RMM:   2    -0.240124524924E+02    0.54395E-06   -0.20133E-05    64   0.316E-02    0.725E-03
RMM:   3    -0.240124533579E+02   -0.86556E-06   -0.38643E-06    60   0.138E-02    0.268E-03
RMM:   4    -0.240124537421E+02   -0.38421E-06   -0.22709E-07    48   0.419E-03
    4 T=    64. E= -.23979187E+02 F= -.24012454E+02 E0= -.24012454E+02  EK= 0.33267E-01 SP= 0.00E+00 SK= 0.00E+00
       N       E                     dE             d eps       ncg     rms          rms(c)
DAV:   1    -0.240218986518E+02   -0.94453E-02   -0.24551E-03    64   0.417E-01    0.149E-02
RMM:   2    -0.240219023250E+02   -0.36732E-05   -0.32616E-05    64   0.455E-02    0.733E-03
RMM:   3    -0.240219055637E+02   -0.32387E-05   -0.18314E-06    48   0.128E-02    0.329E-03
RMM:   4    -0.240219091187E+02   -0.35550E-05   -0.74375E-07    48   0.671E-03    0.477E-04
RMM:   5    -0.240219114111E+02   -0.22924E-05   -0.16825E-07    48   0.321E-03    0.245E-04
RMM:   6    -0.240219145017E+02   -0.30906E-05   -0.16805E-07    46   0.235E-03    0.254E-04
RMM:   7    -0.240219151091E+02   -0.60737E-06    0.00000E+00    32   0.135E-03
    5 T=    82. E= -.23979353E+02 F= -.24021915E+02 E0= -.24021915E+02  EK= 0.42563E-01 SP= 0.00E+00 SK= 0.00E+00
       N       E                     dE             d eps       ncg     rms          rms(c)
DAV:   1    -0.240250760239E+02   -0.31615E-02   -0.29239E-03    64   0.443E-01    0.487E-03
RMM:   2    -0.240250786528E+02   -0.26290E-05   -0.10449E-05    64   0.329E-02    0.354E-03
RMM:   3    -0.240250807847E+02   -0.21319E-05   -0.47199E-07    48   0.617E-03    0.166E-03
RMM:   4    -0.240250830032E+02   -0.22185E-05   -0.26921E-07    48   0.414E-03    0.440E-04
RMM:   5    -0.240250846717E+02   -0.16685E-05   -0.72335E-08    48   0.208E-03    0.141E-04
RMM:   6    -0.240250849918E+02   -0.32016E-06    0.00000E+00    32   0.982E-04
    6 T=    88. E= -.23979375E+02 F= -.24025085E+02 E0= -.24025085E+02  EK= 0.45710E-01 SP= 0.00E+00 SK= 0.00E+00
       N       E                     dE             d eps       ncg     rms          rms(c)
DAV:   1    -0.240214600306E+02    0.36246E-02   -0.28646E-03    64   0.433E-01    0.295E-03
RMM:   2    -0.240214620527E+02   -0.20221E-05   -0.17834E-05    64   0.443E-02    0.150E-03
RMM:   3    -0.240214622806E+02   -0.22785E-06   -0.39673E-07    48   0.630E-03    0.116E-03
RMM:   4    -0.240214628535E+02   -0.57294E-06   -0.10944E-07    47   0.298E-03
    7 T=    82. E= -.23979262E+02 F= -.24021463E+02 E0= -.24021463E+02  EK= 0.42201E-01 SP= 0.00E+00 SK= 0.00E+00
       N       E                     dE             d eps       ncg     rms          rms(c)
DAV:   1    -0.240126796558E+02    0.87826E-02   -0.24570E-03    80   0.398E-01    0.265E-03
RMM:   2    -0.240126827390E+02   -0.30832E-05   -0.21655E-05    64   0.539E-02    0.273E-03
RMM:   3    -0.240126829623E+02   -0.22338E-06   -0.43580E-07    48   0.597E-03    0.237E-03
RMM:   4    -0.240126849253E+02   -0.19630E-05   -0.13789E-06    48   0.794E-03    0.794E-04
RMM:   5    -0.240126849686E+02   -0.43327E-07   -0.14299E-07    48   0.368E-03
    8 T=    65. E= -.23979058E+02 F= -.24012685E+02 E0= -.24012685E+02  EK= 0.33627E-01 SP= 0.00E+00 SK= 0.00E+00
       N       E                     dE             d eps       ncg     rms          rms(c)
DAV:   1    -0.240018189715E+02    0.10866E-01   -0.16327E-03    64   0.336E-01    0.456E-03
RMM:   2    -0.240018220901E+02   -0.31186E-05   -0.23778E-05    64   0.530E-02    0.257E-03
RMM:   3    -0.240018227862E+02   -0.69605E-06   -0.45185E-07    48   0.617E-03    0.193E-03
RMM:   4    -0.240018249637E+02   -0.21775E-05   -0.24061E-07    48   0.404E-03    0.368E-04
RMM:   5    -0.240018255816E+02   -0.61793E-06   -0.20720E-08    40   0.191E-03
    9 T=    44. E= -.23978834E+02 F= -.24001826E+02 E0= -.24001826E+02  EK= 0.22991E-01 SP= 0.00E+00 SK= 0.00E+00
       N       E                     dE             d eps       ncg     rms          rms(c)
DAV:   1    -0.239923552860E+02    0.94697E-02   -0.84643E-04    64   0.262E-01    0.408E-03
RMM:   2    -0.239923582149E+02   -0.29289E-05   -0.20280E-05    64   0.504E-02    0.341E-03
RMM:   3    -0.239923589252E+02   -0.71030E-06   -0.66778E-07    48   0.677E-03    0.212E-03
RMM:   4    -0.239923607798E+02   -0.18546E-05   -0.11545E-06    48   0.753E-03    0.345E-04
RMM:   5    -0.239923616664E+02   -0.88669E-06   -0.13275E-07    48   0.351E-03
   10 T=    27. E= -.23978648E+02 F= -.23992362E+02 E0= -.23992362E+02  EK= 0.13713E-01 SP= 0.00E+00 SK= 0.00E+00
