 vasp.5.4.4.18Apr17-6-g9f103f2a35 (build Nov 25 2021 15:25:00) complex          
  
 executed on             LinuxIFC date 2022.02.21  10:17:13
 running on   16 total cores
 distrk:  each k-point on   16 cores,    1 groups
 distr:  one band on NCORES_PER_BAND=   4 cores,    4 groups


--------------------------------------------------------------------------------------------------------


 INCAR:
 POTCAR:    PAW_PBE H 15Jun2001                   
 POTCAR:    PAW_PBE C 08Apr2002                   
 POTCAR:    PAW_PBE H 15Jun2001                   
   VRHFIN =H: ultrasoft test                                                    
   LEXCH  = PE                                                                  
   EATOM  =    12.4884 eV,    0.9179 Ry                                         
                                                                                
   TITEL  = PAW_PBE H 15Jun2001                                                 
   LULTRA =        F    use ultrasoft PP ?                                      
   IUNSCR =        0    unscreen: 0-lin 1-nonlin 2-no                           
   RPACOR =    0.000    partial core radius                                     
   POMASS =    1.000; ZVAL   =    1.000    mass and valenz                      
   RCORE  =    1.100    outmost cutoff radius                                   
   RWIGS  =    0.700; RWIGS  =    0.370    wigner-seitz radius (au A)           
   ENMAX  =  250.000; ENMIN  =  200.000 eV                                      
   RCLOC  =    0.701    cutoff for local pot                                    
   LCOR   =        T    correct aug charges                                     
   LPAW   =        T    paw PP                                                  
   EAUG   =  400.000                                                            
   RMAX   =    1.123    core radius for proj-oper                               
   RAUG   =    1.200    factor for augmentation sphere                          
   RDEP   =    1.112    radius for radial grids                                 
   RDEPT  =    0.926    core radius for aug-charge                              
                                                                                
   Atomic configuration                                                         
    2 entries                                                                   
     n  l   j            E        occ.                                          
     1  0  0.50        -6.4927   1.0000                                         
     2  1  0.50        -3.4015   0.0000                                         
   Description                                                                  
     l       E           TYP  RCUT    TYP  RCUT                                 
     0     -6.4927494     23  1.100                                             
     0      6.8029130     23  1.100                                             
     1     -4.0817478     23  1.100                                             
  local pseudopotential read in
  atomic valenz-charges read in
  non local Contribution for L=           0  read in
    real space projection operators read in
  non local Contribution for L=           0  read in
    real space projection operators read in
  non local Contribution for L=           1  read in
    real space projection operators read in
    PAW grid and wavefunctions read in
 
   number of l-projection  operators is LMAX  =           3
   number of lm-projection operators is LMMAX =           5
 
 POTCAR:    PAW_PBE C 08Apr2002                   
   VRHFIN =C: s2p2                                                              
   LEXCH  = PE                                                                  
   EATOM  =   147.1560 eV,   10.8157 Ry                                         
                                                                                
   TITEL  = PAW_PBE C 08Apr2002                                                 
   LULTRA =        F    use ultrasoft PP ?                                      
   IUNSCR =        1    unscreen: 0-lin 1-nonlin 2-no                           
   RPACOR =    1.200    partial core radius                                     
   POMASS =   12.011; ZVAL   =    4.000    mass and valenz                      
   RCORE  =    1.500    outmost cutoff radius                                   
   RWIGS  =    1.630; RWIGS  =    0.863    wigner-seitz radius (au A)           
   ENMAX  =  400.000; ENMIN  =  300.000 eV                                      
   ICORE  =        2    local potential                                         
   LCOR   =        T    correct aug charges                                     
   LPAW   =        T    paw PP                                                  
   EAUG   =  644.873                                                            
   DEXC   =    0.000                                                            
   RMAX   =    1.529    core radius for proj-oper                               
   RAUG   =    1.300    factor for augmentation sphere                          
   RDEP   =    1.501    radius for radial grids                                 
   RDEPT  =    1.300    core radius for aug-charge                              
                                                                                
   Atomic configuration                                                         
    4 entries                                                                   
     n  l   j            E        occ.                                          
     1  0  0.50      -273.3789   2.0000                                         
     2  0  0.50       -13.7508   2.0000                                         
     2  1  0.50        -5.2854   2.0000                                         
     3  2  1.50        -5.4423   0.0000                                         
   Description                                                                  
     l       E           TYP  RCUT    TYP  RCUT                                 
     0    -13.7508458     23  1.200                                             
     0     -8.2022199     23  1.200                                             
     1     -5.2854383     23  1.500                                             
     1     34.0145650     23  1.500                                             
     2     -5.4423304      7  1.500                                             
  local pseudopotential read in
  partial core-charges read in
  partial kinetic energy density read in
  atomic valenz-charges read in
  non local Contribution for L=           0  read in
    real space projection operators read in
  non local Contribution for L=           0  read in
    real space projection operators read in
  non local Contribution for L=           1  read in
    real space projection operators read in
  non local Contribution for L=           1  read in
    real space projection operators read in
    PAW grid and wavefunctions read in
 
   number of l-projection  operators is LMAX  =           4
   number of lm-projection operators is LMMAX =           8
 
  PAW_PBE H 15Jun2001                   :
 energy of atom  1       EATOM=  -12.4884
 kinetic energy error for atom=    0.0098 (will be added to EATOM!!)
  PAW_PBE C 08Apr2002                   :
 energy of atom  2       EATOM= -147.1560
 kinetic energy error for atom=    0.0288 (will be added to EATOM!!)
 
 
 POSCAR:  H  C                                   
  positions in cartesian coordinates
  No initial velocities read in
 exchange correlation table for  LEXCH =        8
   RHO(1)=    0.500       N(1)  =     2000
   RHO(2)=  100.500       N(2)  =     4000

 VTST: version 3.2, (02/03/18)

 CHAIN: initializing optimizer
 
 OPT: Using VASP Dynamics algorithm
 CHAIN: Read ICHAIN            0
 
 POSCAR:  H  C                                   
  positions in cartesian coordinates
  No initial velocities read in
 


--------------------------------------------------------------------------------------------------------


 ion  position               nearest neighbor table
   1  0.538  0.407  0.361-   5 1.08
   2  0.395  0.480  0.439-   5 1.06
   3  0.552  0.565  0.442-   5 1.11
   4  0.528  0.417  0.539-   5 1.07
   5  0.503  0.467  0.445-   2 1.06   4 1.07   1 1.08   3 1.11
 

IMPORTANT INFORMATION: All symmetrisations will be switched off!
NOSYMM: (Re-)initialisation of all symmetry stuff for point group C_1.

 
 

Automatic generation of k-mesh.
 generate k-points for:    2    2    2
Space group operators:
 irot       det(A)        alpha          n_x          n_y          n_z        tau_x        tau_y        tau_z
    1     1.000000     0.000000     1.000000     0.000000     0.000000     0.000000     0.000000     0.000000
 
 Subroutine IBZKPT returns following result:
 ===========================================
 
 Found      4 irreducible k-points:
 
 Following reciprocal coordinates:
            Coordinates               Weight
  0.250000  0.250000  0.250000      2.000000
 -0.250000  0.250000  0.250000      2.000000
  0.250000 -0.250000  0.250000      2.000000
 -0.250000 -0.250000  0.250000      2.000000
 
 Following cartesian coordinates:
            Coordinates               Weight
  0.025722  0.024234  0.026875      2.000000
 -0.025722  0.024761  0.025732      2.000000
  0.025722 -0.024761  0.025815      2.000000
 -0.025722 -0.024234  0.024672      2.000000
 


--------------------------------------------------------------------------------------------------------




 Dimension of arrays:
   k-points           NKPTS =      4   k-points in BZ     NKDIM =      4   number of bands    NBANDS=      8
   number of dos      NEDOS =    301   number of ions     NIONS =      5
   non local maximal  LDIM  =      4   non local SUM 2l+1 LMDIM =      8
   total plane-waves  NPLWV = 286720
   max r-space proj   IRMAX =      1   max aug-charges    IRDMAX=   3716
   dimension x,y,z NGX =    64 NGY =   70 NGZ =   64
   dimension x,y,z NGXF=   128 NGYF=  140 NGZF=  128
   support grid    NGXF=   128 NGYF=  140 NGZF=  128
   ions per type =               4   1
   NGX,Y,Z   is equivalent  to a cutoff of  10.95, 11.40, 10.96 a.u.
   NGXF,Y,Z  is equivalent  to a cutoff of  21.89, 22.81, 21.93 a.u.

 SYSTEM =  unknown system                          
 POSCAR =   H  C                                   

 Startparameter for this run:
   NWRITE =      2    write-flag & timer
   PREC   = a         normal or accurate (medium, high low for compatibility)
   ISTART =      0    job   : 0-new  1-cont  2-samecut
   ICHARG =      2    charge: 1-file 2-atom 10-const
   ISPIN  =      1    spin polarized calculation?
   LNONCOLLINEAR =      F non collinear calculations
   LSORBIT =      F    spin-orbit coupling
   INIWAV =      1    electr: 0-lowe 1-rand  2-diag
   LASPH  =      F    aspherical Exc in radial PAW
   METAGGA=      F    non-selfconsistent MetaGGA calc.

 Electronic Relaxation 1
   ENCUT  =  400.0 eV  29.40 Ry    5.42 a.u.  15.85 16.64 15.83*2*pi/ulx,y,z
   ENINI  =  400.0     initial cutoff
   ENAUG  =  644.9 eV  augmentation charge cutoff
   NELM   =    120;   NELMIN=  4; NELMDL= -5     # of ELM steps 
   EDIFF  = 0.1E-05   stopping-criterion for ELM
   LREAL  =      F    real-space projection
   NLSPLINE    = F    spline interpolate recip. space projectors
   LCOMPAT=      F    compatible to vasp.4.4
   GGA_COMPAT  = T    GGA compatible to vasp.4.4-vasp.4.6
   LMAXPAW     = -100 max onsite density
   LMAXMIX     =    2 max onsite mixed and CHGCAR
   VOSKOWN=      0    Vosko Wilk Nusair interpolation
   ROPT   =    0.00000   0.00000
 Ionic relaxation
   EDIFFG = 0.1E-04   stopping-criterion for IOM
   NSW    =     10    number of steps for IOM
   NBLOCK =      1;   KBLOCK =     10    inner block; outer block 
   IBRION =      0    ionic relax: 0-MD 1-quasi-New 2-CG
   NFREE  =      0    steps in history (QN), initial steepest desc. (CG)
   ISIF   =      2    stress and relaxation
   IWAVPR =     12    prediction:  0-non 1-charg 2-wave 3-comb
   ISYM   =      0    0-nonsym 1-usesym 2-fastsym
   LCORR  =      T    Harris-Foulkes like correction to forces

   POTIM  = 0.5000    time-step for ionic-motion
   TEIN   =    0.0    initial temperature
   TEBEG  =    0.0;   TEEND  =   0.0 temperature during run
   SMASS  =  -3.00    Nose mass-parameter (am)
   estimated Nose-frequenzy (Omega)   =  0.10E-29 period in steps =****** mass=  -0.216E-26a.u.
   SCALEE = 1.0000    scale energy and forces
   NPACO  =    256;   APACO  = 16.0  distance and # of slots for P.C.
   PSTRESS=    0.0 pullay stress

  Mass of Ions in am
   POMASS =   1.00 12.01
  Ionic Valenz
   ZVAL   =   1.00  4.00
  Atomic Wigner-Seitz radii
   RWIGS  =  -1.00 -1.00
  virtual crystal weights 
   VCA    =   1.00  1.00
   NELECT =       8.0000    total number of electrons
   NUPDOWN=      -1.0000    fix difference up-down

 DOS related values:
   EMIN   =  10.00;   EMAX   =-10.00  energy-range for DOS
   EFERMI =   0.00
   ISMEAR =     0;   SIGMA  =   0.20  broadening in eV -4-tet -1-fermi 0-gaus

 Electronic relaxation 2 (details)
   IALGO  =     68    algorithm
   LDIAG  =      T    sub-space diagonalisation (order eigenvalues)
   LSUBROT=      F    optimize rotation matrix (better conditioning)
   TURBO    =      0    0=normal 1=particle mesh
   IRESTART =      0    0=no restart 2=restart with 2 vectors
   NREBOOT  =      0    no. of reboots
   NMIN     =      0    reboot dimension
   EREF     =   0.00    reference energy to select bands
   IMIX   =      4    mixing-type and parameters
     AMIX     =   0.40;   BMIX     =  1.00
     AMIX_MAG =   1.60;   BMIX_MAG =  1.00
     AMIN     =   0.10
     WC   =   100.;   INIMIX=   1;  MIXPRE=   1;  MAXMIX= -45

 Intra band minimization:
   WEIMIN = 0.0010     energy-eigenvalue tresh-hold
   EBREAK =  0.31E-07  absolut break condition
   DEPER  =   0.30     relativ break condition  

   TIME   =   0.40     timestep for ELM

  volume/ion in A,a.u.               =     192.41      1298.48
  Fermi-wavevector in a.u.,A,eV,Ry     =   0.331667  0.626759  1.496679  0.110003
  Thomas-Fermi vector in A             =   1.228018
 
 Write flags
   LWAVE        =      F    write WAVECAR
   LDOWNSAMPLE  =      F    k-point downsampling of WAVECAR
   LCHARG       =      F    write CHGCAR
   LVTOT        =      F    write LOCPOT, total local potential
   LVHAR        =      F    write LOCPOT, Hartree potential only
   LELF         =      F    write electronic localiz. function (ELF)
   LORBIT       =      0    0 simple, 1 ext, 2 COOP (PROOUT), +10 PAW based schemes


 Dipole corrections
   LMONO  =      F    monopole corrections only (constant potential shift)
   LDIPOL =      F    correct potential (dipole corrections)
   IDIPOL =      0    1-x, 2-y, 3-z, 4-all directions 
   EPSILON=  1.0000000 bulk dielectric constant

 Exchange correlation treatment:
   GGA     =    --    GGA type
   LEXCH   =     8    internal setting for exchange type
   VOSKOWN=      0    Vosko Wilk Nusair interpolation
   LHFCALC =     F    Hartree Fock is set to
   LHFONE  =     F    Hartree Fock one center treatment
   AEXX    =    0.0000 exact exchange contribution

 Linear response parameters
   LEPSILON=     F    determine dielectric tensor
   LRPA    =     F    only Hartree local field effects (RPA)
   LNABLA  =     F    use nabla operator in PAW spheres
   LVEL    =     F    velocity operator in full k-point grid
   LINTERFAST=   F  fast interpolation
   KINTER  =     0    interpolate to denser k-point grid
   CSHIFT  =0.1000    complex shift for real part using Kramers Kronig
   OMEGAMAX=  -1.0    maximum frequency
   DEG_THRESHOLD= 0.2000000E-02 threshold for treating states as degnerate
   RTIME   =   -0.100 relaxation time in fs
  (WPLASMAI=    0.000 imaginary part of plasma frequency in eV, 0.658/RTIME)
   DFIELD  = 0.0000000 0.0000000 0.0000000 field for delta impulse in time
 
 Orbital magnetization related:
   ORBITALMAG=     F  switch on orbital magnetization
   LCHIMAG   =     F  perturbation theory with respect to B field
   DQ        =  0.001000  dq finite difference perturbation B field
   LLRAUG    =     F  two centre corrections for induced B field



--------------------------------------------------------------------------------------------------------


 molecular dynamics for ions
   using a microcanonical ensemble
 charge density and potential will be updated during run
 non-spin polarized calculation
 RMM-DIIS sequential band-by-band and
  variant of blocked Davidson during initial phase
 perform sub-space diagonalisation
    before iterative eigenvector-optimisation
 modified Broyden-mixing scheme, WC =      100.0
 initial mixing is a Kerker type mixing with AMIX =  0.4000 and BMIX =      1.0000
 Hartree-type preconditioning will be used
 using additional bands            4
 reciprocal scheme for non local part
 use partial core corrections
 calculate Harris-corrections to forces 
   (improved forces if not selfconsistent)
 use gradient corrections 
 use of overlap-Matrix (Vanderbilt PP)
 Gauss-broadening in eV      SIGMA  =   0.20


--------------------------------------------------------------------------------------------------------


  energy-cutoff  :      400.00
  volume of cell :      962.07
      direct lattice vectors                 reciprocal lattice vectors
     9.719244695  0.000000000  0.000000000     0.102888654 -0.001053674  0.002285710
     0.104508174 10.204963563  0.000000000     0.000000000  0.097991531  0.002119029
    -0.217633873 -0.209755441  9.699847793     0.000000000  0.000000000  0.103094401

  length of vectors
     9.719244695 10.205498679  9.704556097     0.102919433  0.098014440  0.103094401


 
 k-points in units of 2pi/SCALE and weight: read from INCAR                         
   0.02572216  0.02423446  0.02687479       0.250
  -0.02572216  0.02476130  0.02573193       0.250
   0.02572216 -0.02476130  0.02581527       0.250
  -0.02572216 -0.02423446  0.02467242       0.250
 
 k-points in reciprocal lattice and weights: read from INCAR                         
   0.25000000  0.25000000  0.25000000       0.250
  -0.25000000  0.25000000  0.25000000       0.250
   0.25000000 -0.25000000  0.25000000       0.250
  -0.25000000 -0.25000000  0.25000000       0.250
 
 position of ions in fractional coordinates (direct lattice) 
   0.53801081  0.40686089  0.36052136
   0.39473962  0.48026968  0.43874556
   0.55221058  0.56508475  0.44196614
   0.52777064  0.41711949  0.53889029
   0.50330866  0.46726006  0.44527733
 
 position of ions in cartesian coordinates  (Angst):
   5.19311735  4.07637925  3.49700231
   3.79127712  4.80910536  4.25576513
   5.32993890  5.67396445  4.28700432
   5.05584357  4.14365399  5.22715381
   4.84370511  4.67497259  4.31912232
 


--------------------------------------------------------------------------------------------------------


 k-point  1 :   0.2500 0.2500 0.2500  plane waves:   17471
 k-point  2 :  -0.2500 0.2500 0.2500  plane waves:   17454
 k-point  3 :   0.2500-0.2500 0.2500  plane waves:   17488
 k-point  4 :  -0.2500-0.2500 0.2500  plane waves:   17504

 maximum and minimum number of plane-waves per node :      4412     4341

 maximum number of plane-waves:     17504
 maximum index in each direction: 
   IXMAX=   16   IYMAX=   16   IZMAX=   15
   IXMIN=  -16   IYMIN=  -16   IZMIN=  -16


 parallel 3D FFT for wavefunctions:
    minimum data exchange during FFTs selected (reduces bandwidth)
 parallel 3D FFT for charge:
    minimum data exchange during FFTs selected (reduces bandwidth)


 total amount of memory used by VASP MPI-rank0    51166. kBytes
=======================================================================

   base      :      30000. kBytes
   nonl-proj :       2592. kBytes
   fftplans  :       7001. kBytes
   grid      :      11005. kBytes
   one-center:          6. kBytes
   wavefun   :        562. kBytes
 
     INWAV:  cpu time    0.0000: real time    0.0001
 Broyden mixing: mesh for mixing (old mesh)
   NGX = 31   NGY = 33   NGZ = 31
  (NGX  =128   NGY  =140   NGZ  =128)
  gives a total of  31713 points

 initial charge density was supplied:
 charge density of overlapping atoms calculated
 number of electron       8.0000000 magnetization 
 keeping initial charge density in first step


--------------------------------------------------------------------------------------------------------


 Maximum index for augmentation-charges          277 (set IRDMAX)


--------------------------------------------------------------------------------------------------------


 First call to EWALD:  gamma=   0.180
 Maximum number of real-space cells 3x 3x 3
 Maximum number of reciprocal cells 3x 3x 3

    FEWALD:  cpu time    0.0015: real time    0.0015


--------------------------------------- Iteration      1(   1)  ---------------------------------------


    POTLOK:  cpu time    0.1219: real time    0.1337
    SETDIJ:  cpu time    0.0035: real time    0.0045
     EDDAV:  cpu time    0.1587: real time    0.1822
       DOS:  cpu time    0.0005: real time    0.0060
    --------------------------------------------
      LOOP:  cpu time    0.2846: real time    0.3263

 eigenvalue-minimisations  :    96
 total energy-change (2. order) : 0.1334436E+02  (-0.2107850E+03)
 number of electron       8.0000000 magnetization 
 augmentation part        8.0000000 magnetization 

 Free energy of the ion-electron system (eV)
  ---------------------------------------------------
  alpha Z        PSCENC =         0.25180034
  Ewald energy   TEWEN  =       131.05716947
  -Hartree energ DENC   =      -244.45149398
  -exchange      EXHF   =         0.00000000
  -V(xc)+E(xc)   XCENC  =        22.10163444
  PAW double counting   =       117.05815612     -117.66307307
  entropy T*S    EENTRO =        -0.00000000
  eigenvalues    EBANDS =       -92.05158885
  atomic energy  EATOM  =       197.04175453
  Solvation  Ediel_sol  =         0.00000000
  ---------------------------------------------------
  free energy    TOTEN  =        13.34435901 eV

  energy without entropy =       13.34435901  energy(sigma->0) =       13.34435901


--------------------------------------------------------------------------------------------------------




--------------------------------------- Iteration      1(   2)  ---------------------------------------


     EDDAV:  cpu time    0.1192: real time    0.1204
       DOS:  cpu time    0.0002: real time    0.0002
    --------------------------------------------
      LOOP:  cpu time    0.1194: real time    0.1206

 eigenvalue-minimisations  :    64
 total energy-change (2. order) :-0.3656769E+02  (-0.3656769E+02)
 number of electron       8.0000000 magnetization 
 augmentation part        8.0000000 magnetization 

 Free energy of the ion-electron system (eV)
  ---------------------------------------------------
  alpha Z        PSCENC =         0.25180034
  Ewald energy   TEWEN  =       131.05716947
  -Hartree energ DENC   =      -244.45149398
  -exchange      EXHF   =         0.00000000
  -V(xc)+E(xc)   XCENC  =        22.10163444
  PAW double counting   =       117.05815612     -117.66307307
  entropy T*S    EENTRO =        -0.00000000
  eigenvalues    EBANDS =      -128.61927904
  atomic energy  EATOM  =       197.04175453
  Solvation  Ediel_sol  =         0.00000000
  ---------------------------------------------------
  free energy    TOTEN  =       -23.22333119 eV

  energy without entropy =      -23.22333119  energy(sigma->0) =      -23.22333119


--------------------------------------------------------------------------------------------------------




--------------------------------------- Iteration      1(   3)  ---------------------------------------


     EDDAV:  cpu time    0.1395: real time    0.1448
       DOS:  cpu time    0.0002: real time    0.0002
    --------------------------------------------
      LOOP:  cpu time    0.1397: real time    0.1450

 eigenvalue-minimisations  :    80
 total energy-change (2. order) :-0.4389492E+01  (-0.4389492E+01)
 number of electron       8.0000000 magnetization 
 augmentation part        8.0000000 magnetization 

 Free energy of the ion-electron system (eV)
  ---------------------------------------------------
  alpha Z        PSCENC =         0.25180034
  Ewald energy   TEWEN  =       131.05716947
  -Hartree energ DENC   =      -244.45149398
  -exchange      EXHF   =         0.00000000
  -V(xc)+E(xc)   XCENC  =        22.10163444
  PAW double counting   =       117.05815612     -117.66307307
  entropy T*S    EENTRO =        -0.00000000
  eigenvalues    EBANDS =      -133.00877117
  atomic energy  EATOM  =       197.04175453
  Solvation  Ediel_sol  =         0.00000000
  ---------------------------------------------------
  free energy    TOTEN  =       -27.61282331 eV

  energy without entropy =      -27.61282331  energy(sigma->0) =      -27.61282331


--------------------------------------------------------------------------------------------------------




--------------------------------------- Iteration      1(   4)  ---------------------------------------


     EDDAV:  cpu time    0.1974: real time    0.2025
       DOS:  cpu time    0.0002: real time    0.0002
    --------------------------------------------
      LOOP:  cpu time    0.1975: real time    0.2026

 eigenvalue-minimisations  :   128
 total energy-change (2. order) :-0.1407834E+00  (-0.1407834E+00)
 number of electron       8.0000000 magnetization 
 augmentation part        8.0000000 magnetization 

 Free energy of the ion-electron system (eV)
  ---------------------------------------------------
  alpha Z        PSCENC =         0.25180034
  Ewald energy   TEWEN  =       131.05716947
  -Hartree energ DENC   =      -244.45149398
  -exchange      EXHF   =         0.00000000
  -V(xc)+E(xc)   XCENC  =        22.10163444
  PAW double counting   =       117.05815612     -117.66307307
  entropy T*S    EENTRO =        -0.00000000
  eigenvalues    EBANDS =      -133.14955458
  atomic energy  EATOM  =       197.04175453
  Solvation  Ediel_sol  =         0.00000000
  ---------------------------------------------------
  free energy    TOTEN  =       -27.75360673 eV

  energy without entropy =      -27.75360673  energy(sigma->0) =      -27.75360673


--------------------------------------------------------------------------------------------------------




--------------------------------------- Iteration      1(   5)  ---------------------------------------


     EDDAV:  cpu time    0.1681: real time    0.1722
       DOS:  cpu time    0.0002: real time    0.0002
    CHARGE:  cpu time    0.0153: real time    0.0156
    MIXING:  cpu time    0.0033: real time    0.0034
    --------------------------------------------
      LOOP:  cpu time    0.1870: real time    0.1914

 eigenvalue-minimisations  :   104
 total energy-change (2. order) :-0.4505592E-04  (-0.4505612E-04)
 number of electron       8.0000002 magnetization 
 augmentation part        0.2316007 magnetization 

 Broyden mixing:
  rms(total) = 0.90354E+00    rms(broyden)= 0.90326E+00
  rms(prec ) = 0.12711E+01
  weight for this iteration     100.00

 Free energy of the ion-electron system (eV)
  ---------------------------------------------------
  alpha Z        PSCENC =         0.25180034
  Ewald energy   TEWEN  =       131.05716947
  -Hartree energ DENC   =      -244.45149398
  -exchange      EXHF   =         0.00000000
  -V(xc)+E(xc)   XCENC  =        22.10163444
  PAW double counting   =       117.05815612     -117.66307307
  entropy T*S    EENTRO =        -0.00000000
  eigenvalues    EBANDS =      -133.14959964
  atomic energy  EATOM  =       197.04175453
  Solvation  Ediel_sol  =         0.00000000
  ---------------------------------------------------
  free energy    TOTEN  =       -27.75365179 eV

  energy without entropy =      -27.75365179  energy(sigma->0) =      -27.75365179


--------------------------------------------------------------------------------------------------------




--------------------------------------- Iteration      1(   6)  ---------------------------------------


    POTLOK:  cpu time    0.1070: real time    0.1095
    SETDIJ:  cpu time    0.0016: real time    0.0016
    EDDIAG:  cpu time    0.0335: real time    0.0454
  RMM-DIIS:  cpu time    0.1191: real time    0.1201
    ORTHCH:  cpu time    0.0019: real time    0.0020
       DOS:  cpu time    0.0002: real time    0.0002
    CHARGE:  cpu time    0.0149: real time    0.0150
    MIXING:  cpu time    0.0040: real time    0.0061
    --------------------------------------------
      LOOP:  cpu time    0.2822: real time    0.2998

 eigenvalue-minimisations  :    64
 total energy-change (2. order) : 0.3099437E+01  (-0.5828403E+00)
 number of electron       8.0000002 magnetization 
 augmentation part        0.2040863 magnetization 

 Broyden mixing:
  rms(total) = 0.44314E+00    rms(broyden)= 0.44303E+00
  rms(prec ) = 0.57331E+00
  weight for this iteration     100.00

 eigenvalues of (default mixing * dielectric matrix)
  average eigenvalue GAMMA=   1.3168
  1.3168

 Free energy of the ion-electron system (eV)
  ---------------------------------------------------
  alpha Z        PSCENC =         0.25180034
  Ewald energy   TEWEN  =       131.05716947
  -Hartree energ DENC   =      -264.86160324
  -exchange      EXHF   =         0.00000000
  -V(xc)+E(xc)   XCENC  =        23.34076398
  PAW double counting   =       244.23244326     -245.02183566
  entropy T*S    EENTRO =        -0.00000000
  eigenvalues    EBANDS =      -110.69470791
  atomic energy  EATOM  =       197.04175453
  Solvation  Ediel_sol  =         0.00000000
  ---------------------------------------------------
  free energy    TOTEN  =       -24.65421523 eV

  energy without entropy =      -24.65421523  energy(sigma->0) =      -24.65421523


--------------------------------------------------------------------------------------------------------




--------------------------------------- Iteration      1(   7)  ---------------------------------------


    POTLOK:  cpu time    0.1084: real time    0.1102
    SETDIJ:  cpu time    0.0016: real time    0.0016
    EDDIAG:  cpu time    0.0294: real time    0.0299
  RMM-DIIS:  cpu time    0.1200: real time    0.1226
    ORTHCH:  cpu time    0.0013: real time    0.0013
       DOS:  cpu time    0.0002: real time    0.0002
    CHARGE:  cpu time    0.0139: real time    0.0141
    MIXING:  cpu time    0.0039: real time    0.0039
    --------------------------------------------
      LOOP:  cpu time    0.2786: real time    0.2839

 eigenvalue-minimisations  :    64
 total energy-change (2. order) : 0.5283215E+00  (-0.1392008E+00)
 number of electron       8.0000002 magnetization 
 augmentation part        0.1928615 magnetization 

 Broyden mixing:
  rms(total) = 0.23400E+00    rms(broyden)= 0.23393E+00
  rms(prec ) = 0.28082E+00
  weight for this iteration     100.00

 eigenvalues of (default mixing * dielectric matrix)
  average eigenvalue GAMMA=   1.8471
  1.4773  2.2169

 Free energy of the ion-electron system (eV)
  ---------------------------------------------------
  alpha Z        PSCENC =         0.25180034
  Ewald energy   TEWEN  =       131.05716947
  -Hartree energ DENC   =      -277.18077048
  -exchange      EXHF   =         0.00000000
  -V(xc)+E(xc)   XCENC  =        24.23902242
  PAW double counting   =       381.14234343     -381.97647309
  entropy T*S    EENTRO =        -0.00000000
  eigenvalues    EBANDS =       -98.70074036
  atomic energy  EATOM  =       197.04175453
  Solvation  Ediel_sol  =         0.00000000
  ---------------------------------------------------
  free energy    TOTEN  =       -24.12589374 eV

  energy without entropy =      -24.12589374  energy(sigma->0) =      -24.12589374


--------------------------------------------------------------------------------------------------------




--------------------------------------- Iteration      1(   8)  ---------------------------------------


    POTLOK:  cpu time    0.1085: real time    0.1097
    SETDIJ:  cpu time    0.0017: real time    0.0017
    EDDIAG:  cpu time    0.0291: real time    0.0295
  RMM-DIIS:  cpu time    0.1189: real time    0.1201
    ORTHCH:  cpu time    0.0013: real time    0.0013
       DOS:  cpu time    0.0002: real time    0.0002
    CHARGE:  cpu time    0.0139: real time    0.0141
    MIXING:  cpu time    0.0038: real time    0.0039
    --------------------------------------------
      LOOP:  cpu time    0.2774: real time    0.2805

 eigenvalue-minimisations  :    64
 total energy-change (2. order) : 0.1489051E+00  (-0.1631787E-01)
 number of electron       8.0000002 magnetization 
 augmentation part        0.1914256 magnetization 

 Broyden mixing:
  rms(total) = 0.22424E-01    rms(broyden)= 0.22393E-01
  rms(prec ) = 0.52752E-01
  weight for this iteration     100.00

 eigenvalues of (default mixing * dielectric matrix)
  average eigenvalue GAMMA=   1.5586
  2.2478  1.0012  1.4269

 Free energy of the ion-electron system (eV)
  ---------------------------------------------------
  alpha Z        PSCENC =         0.25180034
  Ewald energy   TEWEN  =       131.05716947
  -Hartree energ DENC   =      -282.60399338
  -exchange      EXHF   =         0.00000000
  -V(xc)+E(xc)   XCENC  =        24.77672420
  PAW double counting   =       498.01501368     -498.81631662
  entropy T*S    EENTRO =        -0.00000000
  eigenvalues    EBANDS =       -93.69914086
  atomic energy  EATOM  =       197.04175453
  Solvation  Ediel_sol  =         0.00000000
  ---------------------------------------------------
  free energy    TOTEN  =       -23.97698863 eV

  energy without entropy =      -23.97698863  energy(sigma->0) =      -23.97698863


--------------------------------------------------------------------------------------------------------




--------------------------------------- Iteration      1(   9)  ---------------------------------------


    POTLOK:  cpu time    0.1087: real time    0.1095
    SETDIJ:  cpu time    0.0018: real time    0.0020
    EDDIAG:  cpu time    0.0287: real time    0.0312
  RMM-DIIS:  cpu time    0.1180: real time    0.1202
    ORTHCH:  cpu time    0.0014: real time    0.0015
       DOS:  cpu time    0.0002: real time    0.0002
    CHARGE:  cpu time    0.0139: real time    0.0140
    MIXING:  cpu time    0.0038: real time    0.0038
    --------------------------------------------
      LOOP:  cpu time    0.2765: real time    0.2823

 eigenvalue-minimisations  :    64
 total energy-change (2. order) : 0.5771140E-02  (-0.1148185E-02)
 number of electron       8.0000002 magnetization 
 augmentation part        0.1908237 magnetization 

 Broyden mixing:
  rms(total) = 0.19936E-01    rms(broyden)= 0.19931E-01
  rms(prec ) = 0.40690E-01
  weight for this iteration     100.00

 eigenvalues of (default mixing * dielectric matrix)
  average eigenvalue GAMMA=   2.1101
  3.0965  2.9480  1.0022  1.3935

 Free energy of the ion-electron system (eV)
  ---------------------------------------------------
  alpha Z        PSCENC =         0.25180034
  Ewald energy   TEWEN  =       131.05716947
  -Hartree energ DENC   =      -283.89200329
  -exchange      EXHF   =         0.00000000
  -V(xc)+E(xc)   XCENC  =        24.84905486
  PAW double counting   =       502.35322206     -503.15711071
  entropy T*S    EENTRO =        -0.00000000
  eigenvalues    EBANDS =       -92.47510475
  atomic energy  EATOM  =       197.04175453
  Solvation  Ediel_sol  =         0.00000000
  ---------------------------------------------------
  free energy    TOTEN  =       -23.97121749 eV

  energy without entropy =      -23.97121749  energy(sigma->0) =      -23.97121749


--------------------------------------------------------------------------------------------------------




--------------------------------------- Iteration      1(  10)  ---------------------------------------


    POTLOK:  cpu time    0.1033: real time    0.1057
    SETDIJ:  cpu time    0.0016: real time    0.0016
    EDDIAG:  cpu time    0.0289: real time    0.0292
  RMM-DIIS:  cpu time    0.1203: real time    0.1222
    ORTHCH:  cpu time    0.0018: real time    0.0018
       DOS:  cpu time    0.0002: real time    0.0002
    CHARGE:  cpu time    0.0137: real time    0.0139
    MIXING:  cpu time    0.0042: real time    0.0053
    --------------------------------------------
      LOOP:  cpu time    0.2741: real time    0.2800

 eigenvalue-minimisations  :    64
 total energy-change (2. order) : 0.5790112E-02  (-0.2397343E-02)
 number of electron       8.0000002 magnetization 
 augmentation part        0.1897689 magnetization 

 Broyden mixing:
  rms(total) = 0.28667E-01    rms(broyden)= 0.28665E-01
  rms(prec ) = 0.35967E-01
  weight for this iteration     100.00

 eigenvalues of (default mixing * dielectric matrix)
  average eigenvalue GAMMA=   1.7765
  3.0536  2.4607  1.2002  1.2002  0.9679

 Free energy of the ion-electron system (eV)
  ---------------------------------------------------
  alpha Z        PSCENC =         0.25180034
  Ewald energy   TEWEN  =       131.05716947
  -Hartree energ DENC   =      -286.10474627
  -exchange      EXHF   =         0.00000000
  -V(xc)+E(xc)   XCENC  =        24.91799144
  PAW double counting   =       485.19514546     -486.00269824
  entropy T*S    EENTRO =        -0.00000000
  eigenvalues    EBANDS =       -90.32184410
  atomic energy  EATOM  =       197.04175453
  Solvation  Ediel_sol  =         0.00000000
  ---------------------------------------------------
  free energy    TOTEN  =       -23.96542738 eV

  energy without entropy =      -23.96542738  energy(sigma->0) =      -23.96542738


--------------------------------------------------------------------------------------------------------




--------------------------------------- Iteration      1(  11)  ---------------------------------------


    POTLOK:  cpu time    0.1026: real time    0.1052
    SETDIJ:  cpu time    0.0016: real time    0.0016
    EDDIAG:  cpu time    0.0291: real time    0.0293
  RMM-DIIS:  cpu time    0.1196: real time    0.1207
    ORTHCH:  cpu time    0.0013: real time    0.0013
       DOS:  cpu time    0.0002: real time    0.0002
    CHARGE:  cpu time    0.0137: real time    0.0139
    MIXING:  cpu time    0.0041: real time    0.0041
    --------------------------------------------
      LOOP:  cpu time    0.2721: real time    0.2762

 eigenvalue-minimisations  :    64
 total energy-change (2. order) :-0.3048043E-03  (-0.5990079E-03)
 number of electron       8.0000002 magnetization 
 augmentation part        0.1900616 magnetization 

 Broyden mixing:
  rms(total) = 0.57811E-02    rms(broyden)= 0.57775E-02
  rms(prec ) = 0.12386E-01
  weight for this iteration     100.00

 eigenvalues of (default mixing * dielectric matrix)
  average eigenvalue GAMMA=   2.2514
  4.6357  3.1243  2.4266  1.3218  1.0001  1.0001

 Free energy of the ion-electron system (eV)
  ---------------------------------------------------
  alpha Z        PSCENC =         0.25180034
  Ewald energy   TEWEN  =       131.05716947
  -Hartree energ DENC   =      -286.01880699
  -exchange      EXHF   =         0.00000000
  -V(xc)+E(xc)   XCENC  =        24.93225624
  PAW double counting   =       494.58197715     -495.38269253
  entropy T*S    EENTRO =        -0.00000000
  eigenvalues    EBANDS =       -90.42919041
  atomic energy  EATOM  =       197.04175453
  Solvation  Ediel_sol  =         0.00000000
  ---------------------------------------------------
  free energy    TOTEN  =       -23.96573218 eV

  energy without entropy =      -23.96573218  energy(sigma->0) =      -23.96573218


--------------------------------------------------------------------------------------------------------




--------------------------------------- Iteration      1(  12)  ---------------------------------------


    POTLOK:  cpu time    0.0987: real time    0.0995
    SETDIJ:  cpu time    0.0017: real time    0.0017
    EDDIAG:  cpu time    0.0289: real time    0.0293
  RMM-DIIS:  cpu time    0.1239: real time    0.1259
    ORTHCH:  cpu time    0.0014: real time    0.0014
       DOS:  cpu time    0.0002: real time    0.0002
    CHARGE:  cpu time    0.0142: real time    0.0143
    MIXING:  cpu time    0.0043: real time    0.0043
    --------------------------------------------
      LOOP:  cpu time    0.2732: real time    0.2765

 eigenvalue-minimisations  :    64
 total energy-change (2. order) :-0.1004816E-01  (-0.4849506E-03)
 number of electron       8.0000002 magnetization 
 augmentation part        0.1903585 magnetization 

 Broyden mixing:
  rms(total) = 0.13145E-01    rms(broyden)= 0.13143E-01
  rms(prec ) = 0.17020E-01
  weight for this iteration     100.00

 eigenvalues of (default mixing * dielectric matrix)
  average eigenvalue GAMMA=   2.0055
  4.7078  2.8881  2.4349  1.2609  0.9891  0.9891  0.7686

 Free energy of the ion-electron system (eV)
  ---------------------------------------------------
  alpha Z        PSCENC =         0.25180034
  Ewald energy   TEWEN  =       131.05716947
  -Hartree energ DENC   =      -286.19080957
  -exchange      EXHF   =         0.00000000
  -V(xc)+E(xc)   XCENC  =        24.92497704
  PAW double counting   =       492.34176091     -493.14018708
  entropy T*S    EENTRO =        -0.00000000
  eigenvalues    EBANDS =       -90.26224599
  atomic energy  EATOM  =       197.04175453
  Solvation  Ediel_sol  =         0.00000000
  ---------------------------------------------------
  free energy    TOTEN  =       -23.97578035 eV

  energy without entropy =      -23.97578035  energy(sigma->0) =      -23.97578035


--------------------------------------------------------------------------------------------------------




--------------------------------------- Iteration      1(  13)  ---------------------------------------


    POTLOK:  cpu time    0.1093: real time    0.1104
    SETDIJ:  cpu time    0.0017: real time    0.0020
    EDDIAG:  cpu time    0.0290: real time    0.0292
  RMM-DIIS:  cpu time    0.1198: real time    0.1207
    ORTHCH:  cpu time    0.0014: real time    0.0014
       DOS:  cpu time    0.0002: real time    0.0002
    CHARGE:  cpu time    0.0137: real time    0.0140
    MIXING:  cpu time    0.0043: real time    0.0045
    --------------------------------------------
      LOOP:  cpu time    0.2795: real time    0.2823

 eigenvalue-minimisations  :    64
 total energy-change (2. order) :-0.3325076E-03  (-0.8110164E-04)
 number of electron       8.0000002 magnetization 
 augmentation part        0.1901440 magnetization 

 Broyden mixing:
  rms(total) = 0.62179E-02    rms(broyden)= 0.62178E-02
  rms(prec ) = 0.81457E-02
  weight for this iteration     100.00

 eigenvalues of (default mixing * dielectric matrix)
  average eigenvalue GAMMA=   2.3438
  5.9092  3.7725  2.5154  2.1991  1.2405  1.2405  0.9935  0.8800

 Free energy of the ion-electron system (eV)
  ---------------------------------------------------
  alpha Z        PSCENC =         0.25180034
  Ewald energy   TEWEN  =       131.05716947
  -Hartree energ DENC   =      -286.38537957
  -exchange      EXHF   =         0.00000000
  -V(xc)+E(xc)   XCENC  =        24.93118350
  PAW double counting   =       492.20462385     -493.00543870
  entropy T*S    EENTRO =        -0.00000000
  eigenvalues    EBANDS =       -90.07182627
  atomic energy  EATOM  =       197.04175453
  Solvation  Ediel_sol  =         0.00000000
  ---------------------------------------------------
  free energy    TOTEN  =       -23.97611285 eV

  energy without entropy =      -23.97611285  energy(sigma->0) =      -23.97611285


--------------------------------------------------------------------------------------------------------




--------------------------------------- Iteration      1(  14)  ---------------------------------------


    POTLOK:  cpu time    0.0978: real time    0.0988
    SETDIJ:  cpu time    0.0016: real time    0.0016
    EDDIAG:  cpu time    0.0291: real time    0.0293
  RMM-DIIS:  cpu time    0.1210: real time    0.1218
    ORTHCH:  cpu time    0.0015: real time    0.0015
       DOS:  cpu time    0.0002: real time    0.0002
    CHARGE:  cpu time    0.0137: real time    0.0137
    MIXING:  cpu time    0.0045: real time    0.0045
    --------------------------------------------
      LOOP:  cpu time    0.2693: real time    0.2714

 eigenvalue-minimisations  :    64
 total energy-change (2. order) :-0.2826195E-02  (-0.1899090E-03)
 number of electron       8.0000002 magnetization 
 augmentation part        0.1899325 magnetization 

 Broyden mixing:
  rms(total) = 0.38911E-02    rms(broyden)= 0.38886E-02
  rms(prec ) = 0.51333E-02
  weight for this iteration     100.00

 eigenvalues of (default mixing * dielectric matrix)
  average eigenvalue GAMMA=   2.2988
  6.3434  4.0264  2.3824  2.3824  1.2838  1.2838  1.0426  1.0426  0.9019

 Free energy of the ion-electron system (eV)
  ---------------------------------------------------
  alpha Z        PSCENC =         0.25180034
  Ewald energy   TEWEN  =       131.05716947
  -Hartree energ DENC   =      -286.44990433
  -exchange      EXHF   =         0.00000000
  -V(xc)+E(xc)   XCENC  =        24.92413106
  PAW double counting   =       491.32344267     -492.12642148
  entropy T*S    EENTRO =        -0.00000000
  eigenvalues    EBANDS =       -90.00091130
  atomic energy  EATOM  =       197.04175453
  Solvation  Ediel_sol  =         0.00000000
  ---------------------------------------------------
  free energy    TOTEN  =       -23.97893905 eV

  energy without entropy =      -23.97893905  energy(sigma->0) =      -23.97893905


--------------------------------------------------------------------------------------------------------




--------------------------------------- Iteration      1(  15)  ---------------------------------------


    POTLOK:  cpu time    0.0983: real time    0.0989
    SETDIJ:  cpu time    0.0017: real time    0.0017
    EDDIAG:  cpu time    0.0291: real time    0.0296
  RMM-DIIS:  cpu time    0.1193: real time    0.1215
    ORTHCH:  cpu time    0.0014: real time    0.0014
       DOS:  cpu time    0.0002: real time    0.0002
    CHARGE:  cpu time    0.0139: real time    0.0139
    MIXING:  cpu time    0.0047: real time    0.0047
    --------------------------------------------
      LOOP:  cpu time    0.2684: real time    0.2719

 eigenvalue-minimisations  :    64
 total energy-change (2. order) :-0.2831171E-03  (-0.2039654E-04)
 number of electron       8.0000002 magnetization 
 augmentation part        0.1899688 magnetization 

 Broyden mixing:
  rms(total) = 0.81692E-03    rms(broyden)= 0.81684E-03
  rms(prec ) = 0.11563E-02
  weight for this iteration     100.00

 eigenvalues of (default mixing * dielectric matrix)
  average eigenvalue GAMMA=   2.5102
  7.3714  4.8142  2.9687  2.5074  1.9337  1.3138  1.3138  0.9935  0.9935  0.8917

 Free energy of the ion-electron system (eV)
  ---------------------------------------------------
  alpha Z        PSCENC =         0.25180034
  Ewald energy   TEWEN  =       131.05716947
  -Hartree energ DENC   =      -286.34603277
  -exchange      EXHF   =         0.00000000
  -V(xc)+E(xc)   XCENC  =        24.91920262
  PAW double counting   =       491.37408813     -492.17572838
  entropy T*S    EENTRO =        -0.00000000
  eigenvalues    EBANDS =       -90.10147611
  atomic energy  EATOM  =       197.04175453
  Solvation  Ediel_sol  =         0.00000000
  ---------------------------------------------------
  free energy    TOTEN  =       -23.97922216 eV

  energy without entropy =      -23.97922216  energy(sigma->0) =      -23.97922216


--------------------------------------------------------------------------------------------------------




--------------------------------------- Iteration      1(  16)  ---------------------------------------


    POTLOK:  cpu time    0.0994: real time    0.1002
    SETDIJ:  cpu time    0.0017: real time    0.0017
    EDDIAG:  cpu time    0.0289: real time    0.0291
  RMM-DIIS:  cpu time    0.1187: real time    0.1195
    ORTHCH:  cpu time    0.0015: real time    0.0015
       DOS:  cpu time    0.0002: real time    0.0002
    CHARGE:  cpu time    0.0135: real time    0.0138
    MIXING:  cpu time    0.0047: real time    0.0048
    --------------------------------------------
      LOOP:  cpu time    0.2686: real time    0.2709

 eigenvalue-minimisations  :    64
 total energy-change (2. order) :-0.2068726E-03  (-0.3819444E-05)
 number of electron       8.0000002 magnetization 
 augmentation part        0.1899899 magnetization 

 Broyden mixing:
  rms(total) = 0.57648E-03    rms(broyden)= 0.57617E-03
  rms(prec ) = 0.80683E-03
  weight for this iteration     100.00

 eigenvalues of (default mixing * dielectric matrix)
  average eigenvalue GAMMA=   2.4842
  7.5690  4.5806  3.4648  2.3339  2.3339  1.5054  1.3053  1.3053  1.0570  0.9356
  0.9356

 Free energy of the ion-electron system (eV)
  ---------------------------------------------------
  alpha Z        PSCENC =         0.25180034
  Ewald energy   TEWEN  =       131.05716947
  -Hartree energ DENC   =      -286.35359811
  -exchange      EXHF   =         0.00000000
  -V(xc)+E(xc)   XCENC  =        24.92004106
  PAW double counting   =       491.40370863     -492.20515634
  entropy T*S    EENTRO =        -0.00000000
  eigenvalues    EBANDS =       -90.09514862
  atomic energy  EATOM  =       197.04175453
  Solvation  Ediel_sol  =         0.00000000
  ---------------------------------------------------
  free energy    TOTEN  =       -23.97942904 eV

  energy without entropy =      -23.97942904  energy(sigma->0) =      -23.97942904


--------------------------------------------------------------------------------------------------------




--------------------------------------- Iteration      1(  17)  ---------------------------------------


    POTLOK:  cpu time    0.0988: real time    0.1001
    SETDIJ:  cpu time    0.0016: real time    0.0016
    EDDIAG:  cpu time    0.0285: real time    0.0289
  RMM-DIIS:  cpu time    0.1178: real time    0.1194
    ORTHCH:  cpu time    0.0013: real time    0.0013
       DOS:  cpu time    0.0002: real time    0.0002
    CHARGE:  cpu time    0.0139: real time    0.0140
    MIXING:  cpu time    0.0048: real time    0.0048
    --------------------------------------------
      LOOP:  cpu time    0.2669: real time    0.2704

 eigenvalue-minimisations  :    64
 total energy-change (2. order) :-0.3655479E-04  (-0.2766770E-05)
 number of electron       8.0000002 magnetization 
 augmentation part        0.1899521 magnetization 

 Broyden mixing:
  rms(total) = 0.58506E-03    rms(broyden)= 0.58498E-03
  rms(prec ) = 0.81681E-03
  weight for this iteration     100.00

 eigenvalues of (default mixing * dielectric matrix)
  average eigenvalue GAMMA=   2.5524
  8.2877  5.1586  3.8815  2.5212  2.5212  1.8754  1.3070  1.3070  1.0193  0.9365
  0.9365  0.8769

 Free energy of the ion-electron system (eV)
  ---------------------------------------------------
  alpha Z        PSCENC =         0.25180034
  Ewald energy   TEWEN  =       131.05716947
  -Hartree energ DENC   =      -286.40030164
  -exchange      EXHF   =         0.00000000
  -V(xc)+E(xc)   XCENC  =        24.92247003
  PAW double counting   =       491.41676049     -492.21857119
  entropy T*S    EENTRO =        -0.00000000
  eigenvalues    EBANDS =       -90.05054762
  atomic energy  EATOM  =       197.04175453
  Solvation  Ediel_sol  =         0.00000000
  ---------------------------------------------------
  free energy    TOTEN  =       -23.97946559 eV

  energy without entropy =      -23.97946559  energy(sigma->0) =      -23.97946559


--------------------------------------------------------------------------------------------------------




--------------------------------------- Iteration      1(  18)  ---------------------------------------


    POTLOK:  cpu time    0.1013: real time    0.1020
    SETDIJ:  cpu time    0.0017: real time    0.0016
    EDDIAG:  cpu time    0.0331: real time    0.0334
  RMM-DIIS:  cpu time    0.1185: real time    0.1192
    ORTHCH:  cpu time    0.0016: real time    0.0017
       DOS:  cpu time    0.0002: real time    0.0002
    CHARGE:  cpu time    0.0136: real time    0.0140
    MIXING:  cpu time    0.0050: real time    0.0051
    --------------------------------------------
      LOOP:  cpu time    0.2750: real time    0.2771

 eigenvalue-minimisations  :    64
 total energy-change (2. order) :-0.1146668E-04  (-0.8010926E-06)
 number of electron       8.0000002 magnetization 
 augmentation part        0.1899716 magnetization 

 Broyden mixing:
  rms(total) = 0.12077E-03    rms(broyden)= 0.12065E-03
  rms(prec ) = 0.15912E-03
  weight for this iteration     100.00

 eigenvalues of (default mixing * dielectric matrix)
  average eigenvalue GAMMA=   2.5698
  8.3358  5.3327  4.0610  2.8512  2.4846  2.0754  1.7949  1.2918  1.2918  1.0198
  0.9872  0.9872  0.8944

 Free energy of the ion-electron system (eV)
  ---------------------------------------------------
  alpha Z        PSCENC =         0.25180034
  Ewald energy   TEWEN  =       131.05716947
  -Hartree energ DENC   =      -286.37773253
  -exchange      EXHF   =         0.00000000
  -V(xc)+E(xc)   XCENC  =        24.92136745
  PAW double counting   =       491.36792439     -492.16951649
  entropy T*S    EENTRO =        -0.00000000
  eigenvalues    EBANDS =       -90.07224422
  atomic energy  EATOM  =       197.04175453
  Solvation  Ediel_sol  =         0.00000000
  ---------------------------------------------------
  free energy    TOTEN  =       -23.97947706 eV

  energy without entropy =      -23.97947706  energy(sigma->0) =      -23.97947706


--------------------------------------------------------------------------------------------------------




--------------------------------------- Iteration      1(  19)  ---------------------------------------


    POTLOK:  cpu time    0.1046: real time    0.1070
    SETDIJ:  cpu time    0.0016: real time    0.0017
    EDDIAG:  cpu time    0.0288: real time    0.0289
  RMM-DIIS:  cpu time    0.0947: real time    0.0953
    ORTHCH:  cpu time    0.0014: real time    0.0014
       DOS:  cpu time    0.0002: real time    0.0002
    CHARGE:  cpu time    0.0137: real time    0.0138
    MIXING:  cpu time    0.0053: real time    0.0053
    --------------------------------------------
      LOOP:  cpu time    0.2502: real time    0.2534

 eigenvalue-minimisations  :    44
 total energy-change (2. order) :-0.3530659E-05  (-0.2286250E-07)
 number of electron       8.0000002 magnetization 
 augmentation part        0.1899725 magnetization 

 Broyden mixing:
  rms(total) = 0.25921E-04    rms(broyden)= 0.25885E-04
  rms(prec ) = 0.51633E-04
  weight for this iteration     100.00

 eigenvalues of (default mixing * dielectric matrix)
  average eigenvalue GAMMA=   2.5547
  8.4069  5.5169  4.0751  3.5272  2.4414  2.4414  1.9149  1.2981  1.2981  1.0310
  0.9103  0.9515  0.9762  0.9762

 Free energy of the ion-electron system (eV)
  ---------------------------------------------------
  alpha Z        PSCENC =         0.25180034
  Ewald energy   TEWEN  =       131.05716947
  -Hartree energ DENC   =      -286.37856632
  -exchange      EXHF   =         0.00000000
  -V(xc)+E(xc)   XCENC  =        24.92128487
  PAW double counting   =       491.36058113     -492.16220871
  entropy T*S    EENTRO =        -0.00000000
  eigenvalues    EBANDS =       -90.07129590
  atomic energy  EATOM  =       197.04175453
  Solvation  Ediel_sol  =         0.00000000
  ---------------------------------------------------
  free energy    TOTEN  =       -23.97948059 eV

  energy without entropy =      -23.97948059  energy(sigma->0) =      -23.97948059


--------------------------------------------------------------------------------------------------------




--------------------------------------- Iteration      1(  20)  ---------------------------------------


    POTLOK:  cpu time    0.1029: real time    0.1034
    SETDIJ:  cpu time    0.0017: real time    0.0021
    EDDIAG:  cpu time    0.0284: real time    0.0286
  RMM-DIIS:  cpu time    0.0955: real time    0.0971
    ORTHCH:  cpu time    0.0015: real time    0.0016
       DOS:  cpu time    0.0002: real time    0.0002
    CHARGE:  cpu time    0.0136: real time    0.0138
    MIXING:  cpu time    0.0059: real time    0.0061
    --------------------------------------------
      LOOP:  cpu time    0.2496: real time    0.2529

 eigenvalue-minimisations  :    48
 total energy-change (2. order) :-0.1014013E-05  (-0.2075155E-07)
 number of electron       8.0000002 magnetization 
 augmentation part        0.1899719 magnetization 

 Broyden mixing:
  rms(total) = 0.57933E-04    rms(broyden)= 0.57931E-04
  rms(prec ) = 0.75562E-04
  weight for this iteration     100.00

 eigenvalues of (default mixing * dielectric matrix)
  average eigenvalue GAMMA=   2.5225
  8.4283  5.5534  4.1876  3.5212  2.6555  2.4026  1.9956  1.5515  1.2903  1.2903
  1.1165  0.9119  0.9119  1.0103  1.0103

 Free energy of the ion-electron system (eV)
  ---------------------------------------------------
  alpha Z        PSCENC =         0.25180034
  Ewald energy   TEWEN  =       131.05716947
  -Hartree energ DENC   =      -286.37846093
  -exchange      EXHF   =         0.00000000
  -V(xc)+E(xc)   XCENC  =        24.92120416
  PAW double counting   =       491.35803330     -492.15968305
  entropy T*S    EENTRO =        -0.00000000
  eigenvalues    EBANDS =       -90.07129943
  atomic energy  EATOM  =       197.04175453
  Solvation  Ediel_sol  =         0.00000000
  ---------------------------------------------------
  free energy    TOTEN  =       -23.97948160 eV

  energy without entropy =      -23.97948160  energy(sigma->0) =      -23.97948160


--------------------------------------------------------------------------------------------------------




--------------------------------------- Iteration      1(  21)  ---------------------------------------


    POTLOK:  cpu time    0.1029: real time    0.1043
    SETDIJ:  cpu time    0.0016: real time    0.0017
    EDDIAG:  cpu time    0.0285: real time    0.0290
  RMM-DIIS:  cpu time    0.0966: real time    0.0986
    ORTHCH:  cpu time    0.0013: real time    0.0013
       DOS:  cpu time    0.0002: real time    0.0002
    CHARGE:  cpu time    0.0136: real time    0.0138
    MIXING:  cpu time    0.0056: real time    0.0057
    --------------------------------------------
      LOOP:  cpu time    0.2503: real time    0.2545

 eigenvalue-minimisations  :    48
 total energy-change (2. order) :-0.1521119E-05  (-0.4536125E-07)
 number of electron       8.0000002 magnetization 
 augmentation part        0.1899753 magnetization 

 Broyden mixing:
  rms(total) = 0.11767E-03    rms(broyden)= 0.11766E-03
  rms(prec ) = 0.15251E-03
  weight for this iteration     100.00

 eigenvalues of (default mixing * dielectric matrix)
  average eigenvalue GAMMA=   2.5723
  8.4753  5.8036  5.0305  3.8381  2.9150  2.4930  2.3062  1.9573  1.2950  1.2950
  0.9836  0.9836  1.0088  1.0088  0.8816  0.8816

 Free energy of the ion-electron system (eV)
  ---------------------------------------------------
  alpha Z        PSCENC =         0.25180034
  Ewald energy   TEWEN  =       131.05716947
  -Hartree energ DENC   =      -286.37580918
  -exchange      EXHF   =         0.00000000
  -V(xc)+E(xc)   XCENC  =        24.92116838
  PAW double counting   =       491.37148921     -492.17308712
  entropy T*S    EENTRO =        -0.00000000
  eigenvalues    EBANDS =       -90.07396875
  atomic energy  EATOM  =       197.04175453
  Solvation  Ediel_sol  =         0.00000000
  ---------------------------------------------------
  free energy    TOTEN  =       -23.97948312 eV

  energy without entropy =      -23.97948312  energy(sigma->0) =      -23.97948312


--------------------------------------------------------------------------------------------------------




--------------------------------------- Iteration      1(  22)  ---------------------------------------


    POTLOK:  cpu time    0.1033: real time    0.1051
    SETDIJ:  cpu time    0.0019: real time    0.0019
    EDDIAG:  cpu time    0.0287: real time    0.0292
  RMM-DIIS:  cpu time    0.0917: real time    0.0931
    ORTHCH:  cpu time    0.0017: real time    0.0017
       DOS:  cpu time    0.0002: real time    0.0002
    --------------------------------------------
      LOOP:  cpu time    0.2274: real time    0.2311

 eigenvalue-minimisations  :    44
 total energy-change (2. order) :-0.2161572E-06  (-0.5960310E-08)
 number of electron       8.0000002 magnetization 
 augmentation part        0.1899753 magnetization 

 Free energy of the ion-electron system (eV)
  ---------------------------------------------------
  alpha Z        PSCENC =         0.25180034
  Ewald energy   TEWEN  =       131.05716947
  -Hartree energ DENC   =      -286.37767962
  -exchange      EXHF   =         0.00000000
  -V(xc)+E(xc)   XCENC  =        24.92123079
  PAW double counting   =       491.36240986     -492.16403708
  entropy T*S    EENTRO =        -0.00000000
  eigenvalues    EBANDS =       -90.07213164
  atomic energy  EATOM  =       197.04175453
  Solvation  Ediel_sol  =         0.00000000
  ---------------------------------------------------
  free energy    TOTEN  =       -23.97948334 eV

  energy without entropy =      -23.97948334  energy(sigma->0) =      -23.97948334


--------------------------------------------------------------------------------------------------------




 average (electrostatic) potential at core
  the test charge radii are     0.5201  0.6991
  (the norm of the test charge is              1.0000)
       1 -41.6347       2 -41.7384       3 -41.3725       4 -41.6606       5 -57.8603
 
 
 
 E-fermi :  -8.2026     XC(G=0):  -0.7148     alpha+bet : -0.2190


 k-point     1 :       0.2500    0.2500    0.2500
  band No.  band energies     occupation 
      1     -17.0087      2.00000
      2      -9.4536      2.00000
      3      -9.3983      2.00000
      4      -9.1753      2.00000
      5      -0.2854      0.00000
      6       0.5883      0.00000
      7       0.6879      0.00000
      8       0.7156      0.00000

 k-point     2 :      -0.2500    0.2500    0.2500
  band No.  band energies     occupation 
      1     -17.0086      2.00000
      2      -9.4536      2.00000
      3      -9.3983      2.00000
      4      -9.1752      2.00000
      5      -0.2890      0.00000
      6       0.5814      0.00000
      7       0.6914      0.00000
      8       0.7379      0.00000

 k-point     3 :       0.2500   -0.2500    0.2500
  band No.  band energies     occupation 
      1     -17.0087      2.00000
      2      -9.4538      2.00000
      3      -9.3984      2.00000
      4      -9.1755      2.00000
      5      -0.2884      0.00000
      6       0.5905      0.00000
      7       0.6947      0.00000
      8       0.7247      0.00000

 k-point     4 :      -0.2500   -0.2500    0.2500
  band No.  band energies     occupation 
      1     -17.0087      2.00000
      2      -9.4537      2.00000
      3      -9.3984      2.00000
      4      -9.1754      2.00000
      5      -0.2947      0.00000
      6       0.5990      0.00000
      7       0.7077      0.00000
      8       0.7483      0.00000


--------------------------------------------------------------------------------------------------------


 soft charge-density along one line, spin component           1
         0         1         2         3         4         5         6         7         8         9
 total charge-density along one line
 
 pseudopotential strength for first ion, spin component:           1
 -2.342  -4.036  -0.001  -0.001   0.001
 -4.036  -6.869  -0.003  -0.005   0.002
 -0.001  -0.003  -0.336   0.002  -0.001
 -0.001  -0.005   0.002  -0.335  -0.001
  0.001   0.002  -0.001  -0.001  -0.337
 total augmentation occupancy for first ion, spin component:           1
  3.623  -0.648   0.254   0.348  -0.148
 -0.648   0.131  -0.046  -0.064   0.027
  0.254  -0.046   0.025   0.020  -0.009
  0.348  -0.064   0.020   0.038  -0.012
 -0.148   0.027  -0.009  -0.012   0.015


------------------------ aborting loop because EDIFF is reached ----------------------------------------


    CHARGE:  cpu time    0.0138: real time    0.0141
    FORLOC:  cpu time    0.0093: real time    0.0094
    FORNL :  cpu time    0.0169: real time    0.0171
    STRESS:  cpu time    0.1310: real time    0.1329
    FORCOR:  cpu time    0.1040: real time    0.1053
    FORHAR:  cpu time    0.0317: real time    0.0322
    MIXING:  cpu time    0.0056: real time    0.0056
    OFIELD:  cpu time    0.0001: real time    0.0001

  FORCE on cell =-STRESS in cart. coord.  units (eV):
  Direction    XX          YY          ZZ          XY          YZ          ZX
  --------------------------------------------------------------------------------------
  Alpha Z     0.25180     0.25180     0.25180
  Ewald      45.32119    41.16003    44.57593    -1.30447    -2.01446    -2.37002
  Hartree    97.02280    92.30707    97.05051     0.11181    -0.81900    -0.91464
  E(xc)     -27.41309   -27.38571   -27.41582    -0.00003    -0.00859    -0.01161
  Local    -200.70420  -192.08622  -200.25484     0.64043     2.53639     2.93991
  n-local   -16.36939   -16.21257   -16.34875     0.07053    -0.00240    -0.00928
  augment     0.10429     0.11004     0.10694     0.00578     0.00215     0.00233
  Kinetic   102.76242   101.31757   102.89692    -0.06165     0.40808     0.57091
  Fock        0.00000     0.00000     0.00000     0.00000     0.00000     0.00000
  -------------------------------------------------------------------------------------
  Total       0.97581    -0.53798     0.86269    -0.53760     0.10218     0.20760
  in kB       1.62506    -0.89591     1.43666    -0.89528     0.17016     0.34572
  external pressure =        0.72 kB  Pullay stress =        0.00 kB

  kinetic pressure (ideal gas correction) =      0.00 kB
  total pressure  =      0.72 kB
  Total+kin.     1.625      -0.896       1.437      -0.895       0.170       0.346

 VOLUME and BASIS-vectors are now :
 -----------------------------------------------------------------------------
  energy-cutoff  :      400.00
  volume of cell :      962.07
      direct lattice vectors                 reciprocal lattice vectors
     9.719244695  0.000000000  0.000000000     0.102888654 -0.001053674  0.002285710
     0.104508174 10.204963563  0.000000000     0.000000000  0.097991531  0.002119029
    -0.217633873 -0.209755441  9.699847793     0.000000000  0.000000000  0.103094401

  length of vectors
     9.719244695 10.205498679  9.704556097     0.102919433  0.098014440  0.103094401


 FORCES acting on ions
    electron-ion (+dipol)            ewald-force                    non-local-force                 convergence-correction
 -----------------------------------------------------------------------------------------------
   -.177E+02 0.301E+02 0.413E+02   0.198E+02 -.337E+02 -.464E+02   -.190E+01 0.325E+01 0.442E+01   0.942E-04 -.178E-03 -.228E-03
   0.540E+02 -.702E+01 0.326E+01   -.612E+02 0.793E+01 -.378E+01   0.595E+01 -.764E+00 0.333E+00   -.299E-03 0.356E-04 -.158E-04
   -.230E+02 -.472E+02 0.147E+01   0.252E+02 0.514E+02 -.151E+01   -.228E+01 -.475E+01 0.183E+00   0.127E-03 0.283E-03 -.137E-04
   -.108E+02 0.267E+02 -.458E+02   0.123E+02 -.299E+02 0.515E+02   -.112E+01 0.294E+01 -.492E+01   0.508E-04 -.163E-03 0.251E-03
   -.340E+01 -.353E+01 -.197E+00   0.400E+01 0.416E+01 0.164E+00   0.182E+00 0.229E+00 -.582E-01   -.336E-04 -.253E-04 -.890E-05
 -----------------------------------------------------------------------------------------------
   -.825E+00 -.898E+00 0.425E-01   0.178E-14 0.000E+00 0.000E+00   0.824E+00 0.898E+00 -.423E-01   -.604E-04 -.477E-04 -.151E-04
 
 
 POSITION                                       TOTAL-FORCE (eV/Angst)
 -----------------------------------------------------------------------------------
      5.19312      4.07638      3.49700         0.199962     -0.334654     -0.659361
      3.79128      4.80911      4.25577        -1.220448      0.145942     -0.188881
      5.32994      5.67396      4.28700        -0.089191     -0.477220      0.152036
      5.05584      4.14365      5.22715         0.323671     -0.196433      0.787745
      4.84371      4.67497      4.31912         0.785303      0.862136     -0.091398
 -----------------------------------------------------------------------------------
    total drift:                               -0.000702     -0.000229      0.000141


--------------------------------------------------------------------------------------------------------



  FREE ENERGIE OF THE ION-ELECTRON SYSTEM (eV)
  ---------------------------------------------------
  free  energy   TOTEN  =       -23.97948334 eV

  energy  without entropy=      -23.97948334  energy(sigma->0) =      -23.97948334
 


--------------------------------------------------------------------------------------------------------


    POTLOK:  cpu time    0.1067: real time    0.1081


--------------------------------------------------------------------------------------------------------


 stress matrix after NEB project (eV)
      0.97581     -0.53760      0.20760
     -0.53760     -0.53798      0.10218
      0.20760      0.10218      0.86269
  FORCES: max atom, RMS     1.243570    0.951235
  FORCE total and by dimension    2.127025    1.220448
  Stress total and by dimension    1.634307    0.975814
           RANDOM_SEED =         581353665                0                0
           RANDOM_SEED =         581353665               30                0
   IONSTEP:  cpu time    0.0028: real time    0.0063

  ENERGY OF THE ELECTRON-ION-THERMOSTAT SYSTEM (eV)
  ---------------------------------------------------
% ion-electron   TOTEN  =       -23.979483  see above
  kinetic energy EKIN   =         0.000990
  kin. lattice  EKIN_LAT=         0.000000  (temperature    1.91 K)
  nose potential ES     =         0.000000
  nose kinetic   EPS    =         0.000000
  ---------------------------------------------------
  total energy   ETOTAL =       -23.978493 eV

  maximum distance moved by ions :      0.31E-03

    WAVPRE:  cpu time    0.0318: real time    0.0324
    FEWALD:  cpu time    0.0003: real time    0.0003
    ORTHCH:  cpu time    0.0081: real time    0.0082
     LOOP+:  cpu time    5.9336: real time    6.0792


--------------------------------------- Iteration      2(   1)  ---------------------------------------


    POTLOK:  cpu time    0.1051: real time    0.1065
    SETDIJ:  cpu time    0.0016: real time    0.0016
     EDDAV:  cpu time    0.1163: real time    0.1183
       DOS:  cpu time    0.0002: real time    0.0002
    CHARGE:  cpu time    0.0132: real time    0.0134
    MIXING:  cpu time    0.0045: real time    0.0046
    --------------------------------------------
      LOOP:  cpu time    0.2410: real time    0.2447

 eigenvalue-minimisations  :    64
 total energy-change (2. order) :-0.7585905E-02  (-0.9075325E-03)
 number of electron       8.0000002 magnetization 
 augmentation part        0.1894493 magnetization 

 Broyden mixing:
  rms(total) = 0.48061E-02    rms(broyden)= 0.48023E-02
  rms(prec ) = 0.60719E-02
  weight for this iteration     100.00

 Free energy of the ion-electron system (eV)
  ---------------------------------------------------
  alpha Z        PSCENC =         0.25180034
  Ewald energy   TEWEN  =       130.70530780
  -Hartree energ DENC   =      -286.18472323
  -exchange      EXHF   =         0.00000000
  -V(xc)+E(xc)   XCENC  =        24.91134200
  PAW double counting   =       491.35758691     -492.15923451
  entropy T*S    EENTRO =        -0.00000000
  eigenvalues    EBANDS =       -89.91090288
  atomic energy  EATOM  =       197.04175453
  Solvation  Ediel_sol  =         0.00000000
  ---------------------------------------------------
  free energy    TOTEN  =       -23.98706903 eV

  energy without entropy =      -23.98706903  energy(sigma->0) =      -23.98706903


--------------------------------------------------------------------------------------------------------




--------------------------------------- Iteration      2(   2)  ---------------------------------------


    POTLOK:  cpu time    0.1030: real time    0.1044
    SETDIJ:  cpu time    0.0019: real time    0.0019
    EDDIAG:  cpu time    0.0281: real time    0.0286
  RMM-DIIS:  cpu time    0.1197: real time    0.1215
    ORTHCH:  cpu time    0.0014: real time    0.0014
       DOS:  cpu time    0.0002: real time    0.0002
    CHARGE:  cpu time    0.0137: real time    0.0139
    MIXING:  cpu time    0.0035: real time    0.0036
    --------------------------------------------
      LOOP:  cpu time    0.2715: real time    0.2755

 eigenvalue-minimisations  :    64
 total energy-change (2. order) : 0.4489809E-04  (-0.2559355E-04)
 number of electron       8.0000002 magnetization 
 augmentation part        0.1894766 magnetization 

 Broyden mixing:
  rms(total) = 0.26256E-02    rms(broyden)= 0.26248E-02
  rms(prec ) = 0.31643E-02
  weight for this iteration     100.00

 eigenvalues of (default mixing * dielectric matrix)
  average eigenvalue GAMMA=   1.8290
  1.8290

 Free energy of the ion-electron system (eV)
  ---------------------------------------------------
  alpha Z        PSCENC =         0.25180034
  Ewald energy   TEWEN  =       130.70530780
  -Hartree energ DENC   =      -286.11404496
  -exchange      EXHF   =         0.00000000
  -V(xc)+E(xc)   XCENC  =        24.90744402
  PAW double counting   =       490.38788137     -491.18871236
  entropy T*S    EENTRO =        -0.00000000
  eigenvalues    EBANDS =       -89.97845488
  atomic energy  EATOM  =       197.04175453
  Solvation  Ediel_sol  =         0.00000000
  ---------------------------------------------------
  free energy    TOTEN  =       -23.98702413 eV

  energy without entropy =      -23.98702413  energy(sigma->0) =      -23.98702413


--------------------------------------------------------------------------------------------------------




--------------------------------------- Iteration      2(   3)  ---------------------------------------


    POTLOK:  cpu time    0.0983: real time    0.0997
    SETDIJ:  cpu time    0.0016: real time    0.0016
    EDDIAG:  cpu time    0.0281: real time    0.0286
  RMM-DIIS:  cpu time    0.1180: real time    0.1198
    ORTHCH:  cpu time    0.0016: real time    0.0017
       DOS:  cpu time    0.0002: real time    0.0002
    CHARGE:  cpu time    0.0138: real time    0.0139
    MIXING:  cpu time    0.0037: real time    0.0037
    --------------------------------------------
      LOOP:  cpu time    0.2652: real time    0.2692

 eigenvalue-minimisations  :    64
 total energy-change (2. order) : 0.6027701E-05  (-0.1166551E-04)
 number of electron       8.0000002 magnetization 
 augmentation part        0.1895583 magnetization 

 Broyden mixing:
  rms(total) = 0.10099E-02    rms(broyden)= 0.10090E-02
  rms(prec ) = 0.12117E-02
  weight for this iteration     100.00

 eigenvalues of (default mixing * dielectric matrix)
  average eigenvalue GAMMA=   1.4130
  1.4130  1.4130

 Free energy of the ion-electron system (eV)
  ---------------------------------------------------
  alpha Z        PSCENC =         0.25180034
  Ewald energy   TEWEN  =       130.70530780
  -Hartree energ DENC   =      -286.06228171
  -exchange      EXHF   =         0.00000000
  -V(xc)+E(xc)   XCENC  =        24.90458548
  PAW double counting   =       489.44197467     -490.24209350
  entropy T*S    EENTRO =        -0.00000000
  eigenvalues    EBANDS =       -90.02806572
  atomic energy  EATOM  =       197.04175453
  Solvation  Ediel_sol  =         0.00000000
  ---------------------------------------------------
  free energy    TOTEN  =       -23.98701810 eV

  energy without entropy =      -23.98701810  energy(sigma->0) =      -23.98701810


--------------------------------------------------------------------------------------------------------




--------------------------------------- Iteration      2(   4)  ---------------------------------------


    POTLOK:  cpu time    0.0986: real time    0.1005
    SETDIJ:  cpu time    0.0017: real time    0.0017
    EDDIAG:  cpu time    0.0281: real time    0.0286
  RMM-DIIS:  cpu time    0.1211: real time    0.1233
    ORTHCH:  cpu time    0.0014: real time    0.0014
       DOS:  cpu time    0.0002: real time    0.0002
    CHARGE:  cpu time    0.0136: real time    0.0140
    MIXING:  cpu time    0.0043: real time    0.0043
    --------------------------------------------
      LOOP:  cpu time    0.2690: real time    0.2739

 eigenvalue-minimisations  :    64
 total energy-change (2. order) : 0.1341770E-05  (-0.4247897E-06)
 number of electron       8.0000002 magnetization 
 augmentation part        0.1895500 magnetization 

 Broyden mixing:
  rms(total) = 0.59177E-03    rms(broyden)= 0.59171E-03
  rms(prec ) = 0.66322E-03
  weight for this iteration     100.00

 eigenvalues of (default mixing * dielectric matrix)
  average eigenvalue GAMMA=   1.7871
  2.6815  1.0195  1.6604

 Free energy of the ion-electron system (eV)
  ---------------------------------------------------
  alpha Z        PSCENC =         0.25180034
  Ewald energy   TEWEN  =       130.70530780
  -Hartree energ DENC   =      -286.07844476
  -exchange      EXHF   =         0.00000000
  -V(xc)+E(xc)   XCENC  =        24.90531263
  PAW double counting   =       489.36695379     -490.16727702
  entropy T*S    EENTRO =        -0.00000000
  eigenvalues    EBANDS =       -90.01242407
  atomic energy  EATOM  =       197.04175453
  Solvation  Ediel_sol  =         0.00000000
  ---------------------------------------------------
  free energy    TOTEN  =       -23.98701676 eV

  energy without entropy =      -23.98701676  energy(sigma->0) =      -23.98701676


--------------------------------------------------------------------------------------------------------




--------------------------------------- Iteration      2(   5)  ---------------------------------------


    POTLOK:  cpu time    0.0991: real time    0.1011
    SETDIJ:  cpu time    0.0017: real time    0.0017
    EDDIAG:  cpu time    0.0280: real time    0.0285
  RMM-DIIS:  cpu time    0.1643: real time    0.1663
    ORTHCH:  cpu time    0.0012: real time    0.0014
       DOS:  cpu time    0.0002: real time    0.0002
    CHARGE:  cpu time    0.0138: real time    0.0139
    MIXING:  cpu time    0.0039: real time    0.0039
    --------------------------------------------
      LOOP:  cpu time    0.3121: real time    0.3169

 eigenvalue-minimisations  :    64
 total energy-change (2. order) :-0.1463883E-05  (-0.6507691E-06)
 number of electron       8.0000002 magnetization 
 augmentation part        0.1895303 magnetization 

 Broyden mixing:
  rms(total) = 0.37728E-03    rms(broyden)= 0.37717E-03
  rms(prec ) = 0.49824E-03
  weight for this iteration     100.00

 eigenvalues of (default mixing * dielectric matrix)
  average eigenvalue GAMMA=   1.4795
  2.4134  0.9974  1.2535  1.2535

 Free energy of the ion-electron system (eV)
  ---------------------------------------------------
  alpha Z        PSCENC =         0.25180034
  Ewald energy   TEWEN  =       130.70530780
  -Hartree energ DENC   =      -286.08591035
  -exchange      EXHF   =         0.00000000
  -V(xc)+E(xc)   XCENC  =        24.90552541
  PAW double counting   =       489.04110855     -489.84151539
  entropy T*S    EENTRO =        -0.00000000
  eigenvalues    EBANDS =       -90.00508911
  atomic energy  EATOM  =       197.04175453
  Solvation  Ediel_sol  =         0.00000000
[...]
  nose kinetic   EPS    =         0.000000
  ---------------------------------------------------
  total energy   ETOTAL =       -23.978834 eV

  maximum distance moved by ions :      0.57E-03

    WAVPRE:  cpu time    0.0375: real time    0.0382
    FEWALD:  cpu time    0.0003: real time    0.0003
    ORTHCH:  cpu time    0.0075: real time    0.0076
 Prediction of Wavefunctions ALPHA= 2.148 BETA=-1.181
     LOOP+:  cpu time    1.6678: real time    1.7092


--------------------------------------- Iteration     10(   1)  ---------------------------------------


    POTLOK:  cpu time    0.1047: real time    0.1064
    SETDIJ:  cpu time    0.0016: real time    0.0017
     EDDAV:  cpu time    0.1156: real time    0.1186
       DOS:  cpu time    0.0002: real time    0.0002
    CHARGE:  cpu time    0.0129: real time    0.0132
    MIXING:  cpu time    0.0035: real time    0.0035
    --------------------------------------------
      LOOP:  cpu time    0.2385: real time    0.2437

 eigenvalue-minimisations  :    64
 total energy-change (2. order) : 0.9469678E-02  (-0.8464331E-04)
 number of electron       8.0000000 magnetization 
 augmentation part        0.1809520 magnetization 

 Broyden mixing:
  rms(total) = 0.40844E-03    rms(broyden)= 0.40785E-03
  rms(prec ) = 0.52909E-03
  weight for this iteration     100.00

 Free energy of the ion-electron system (eV)
  ---------------------------------------------------
  alpha Z        PSCENC =         0.25180034
  Ewald energy   TEWEN  =       123.52629404
  -Hartree energ DENC   =      -279.78091111
  -exchange      EXHF   =         0.00000000
  -V(xc)+E(xc)   XCENC  =        24.57252637
  PAW double counting   =       445.96370595     -446.73900594
  entropy T*S    EENTRO =        -0.00000000
  eigenvalues    EBANDS =       -88.82851946
  atomic energy  EATOM  =       197.04175453
  Solvation  Ediel_sol  =         0.00000000
  ---------------------------------------------------
  free energy    TOTEN  =       -23.99235529 eV

  energy without entropy =      -23.99235529  energy(sigma->0) =      -23.99235529


--------------------------------------------------------------------------------------------------------




--------------------------------------- Iteration     10(   2)  ---------------------------------------


    POTLOK:  cpu time    0.1022: real time    0.1049
    SETDIJ:  cpu time    0.0016: real time    0.0017
    EDDIAG:  cpu time    0.0275: real time    0.0283
  RMM-DIIS:  cpu time    0.1169: real time    0.1198
    ORTHCH:  cpu time    0.0017: real time    0.0018
       DOS:  cpu time    0.0002: real time    0.0002
    CHARGE:  cpu time    0.0135: real time    0.0138
    MIXING:  cpu time    0.0036: real time    0.0037
    --------------------------------------------
      LOOP:  cpu time    0.2673: real time    0.2742

 eigenvalue-minimisations  :    64
 total energy-change (2. order) :-0.2928894E-05  (-0.2027962E-05)
 number of electron       8.0000000 magnetization 
 augmentation part        0.1809710 magnetization 

 Broyden mixing:
  rms(total) = 0.34131E-03    rms(broyden)= 0.34082E-03
  rms(prec ) = 0.44901E-03
  weight for this iteration     100.00

 eigenvalues of (default mixing * dielectric matrix)
  average eigenvalue GAMMA=   0.6838
  0.6838

 Free energy of the ion-electron system (eV)
  ---------------------------------------------------
  alpha Z        PSCENC =         0.25180034
  Ewald energy   TEWEN  =       123.52629404
  -Hartree energ DENC   =      -279.77409624
  -exchange      EXHF   =         0.00000000
  -V(xc)+E(xc)   XCENC  =        24.57214879
  PAW double counting   =       445.94914391     -446.72432202
  entropy T*S    EENTRO =        -0.00000000
  eigenvalues    EBANDS =       -88.83508156
  atomic energy  EATOM  =       197.04175453
  Solvation  Ediel_sol  =         0.00000000
  ---------------------------------------------------
  free energy    TOTEN  =       -23.99235821 eV

  energy without entropy =      -23.99235821  energy(sigma->0) =      -23.99235821


--------------------------------------------------------------------------------------------------------




--------------------------------------- Iteration     10(   3)  ---------------------------------------


    POTLOK:  cpu time    0.1044: real time    0.1070
    SETDIJ:  cpu time    0.0016: real time    0.0016
    EDDIAG:  cpu time    0.0277: real time    0.0285
  RMM-DIIS:  cpu time    0.0941: real time    0.0966
    ORTHCH:  cpu time    0.0018: real time    0.0019
       DOS:  cpu time    0.0002: real time    0.0002
    CHARGE:  cpu time    0.0135: real time    0.0139
    MIXING:  cpu time    0.0036: real time    0.0037
    --------------------------------------------
      LOOP:  cpu time    0.2469: real time    0.2533

 eigenvalue-minimisations  :    48
 total energy-change (2. order) :-0.7103033E-06  (-0.6677839E-07)
 number of electron       8.0000000 magnetization 
 augmentation part        0.1809757 magnetization 

 Broyden mixing:
  rms(total) = 0.21209E-03    rms(broyden)= 0.21201E-03
  rms(prec ) = 0.27482E-03
  weight for this iteration     100.00

 eigenvalues of (default mixing * dielectric matrix)
  average eigenvalue GAMMA=   1.3407
  1.3407  1.3407

 Free energy of the ion-electron system (eV)
  ---------------------------------------------------
  alpha Z        PSCENC =         0.25180034
  Ewald energy   TEWEN  =       123.52629404
  -Hartree energ DENC   =      -279.77040742
  -exchange      EXHF   =         0.00000000
  -V(xc)+E(xc)   XCENC  =        24.57199535
  PAW double counting   =       445.94257601     -446.71770448
  entropy T*S    EENTRO =        -0.00000000
  eigenvalues    EBANDS =       -88.83866729
  atomic energy  EATOM  =       197.04175453
  Solvation  Ediel_sol  =         0.00000000
  ---------------------------------------------------
  free energy    TOTEN  =       -23.99235893 eV

  energy without entropy =      -23.99235893  energy(sigma->0) =      -23.99235893


--------------------------------------------------------------------------------------------------------




--------------------------------------- Iteration     10(   4)  ---------------------------------------


    POTLOK:  cpu time    0.1039: real time    0.1064
    SETDIJ:  cpu time    0.0016: real time    0.0017
    EDDIAG:  cpu time    0.0283: real time    0.0291
  RMM-DIIS:  cpu time    0.0934: real time    0.0969
    ORTHCH:  cpu time    0.0014: real time    0.0015
       DOS:  cpu time    0.0002: real time    0.0002
    CHARGE:  cpu time    0.0135: real time    0.0139
    MIXING:  cpu time    0.0037: real time    0.0038
    --------------------------------------------
      LOOP:  cpu time    0.2461: real time    0.2533

 eigenvalue-minimisations  :    48
 total energy-change (2. order) :-0.1854557E-05  (-0.1154459E-06)
 number of electron       8.0000000 magnetization 
 augmentation part        0.1809819 magnetization 

 Broyden mixing:
  rms(total) = 0.34516E-04    rms(broyden)= 0.34335E-04
  rms(prec ) = 0.56993E-04
  weight for this iteration     100.00

 eigenvalues of (default mixing * dielectric matrix)
  average eigenvalue GAMMA=   1.3163
  0.9032  1.5228  1.5228

 Free energy of the ion-electron system (eV)
  ---------------------------------------------------
  alpha Z        PSCENC =         0.25180034
  Ewald energy   TEWEN  =       123.52629404
  -Hartree energ DENC   =      -279.76671692
  -exchange      EXHF   =         0.00000000
  -V(xc)+E(xc)   XCENC  =        24.57186232
  PAW double counting   =       445.93997264     -446.71504902
  entropy T*S    EENTRO =        -0.00000000
  eigenvalues    EBANDS =       -88.84227871
  atomic energy  EATOM  =       197.04175453
  Solvation  Ediel_sol  =         0.00000000
  ---------------------------------------------------
  free energy    TOTEN  =       -23.99236078 eV

  energy without entropy =      -23.99236078  energy(sigma->0) =      -23.99236078


--------------------------------------------------------------------------------------------------------




--------------------------------------- Iteration     10(   5)  ---------------------------------------


    POTLOK:  cpu time    0.1041: real time    0.1065
    SETDIJ:  cpu time    0.0017: real time    0.0017
    EDDIAG:  cpu time    0.0280: real time    0.0289
  RMM-DIIS:  cpu time    0.0933: real time    0.0957
    ORTHCH:  cpu time    0.0017: real time    0.0018
       DOS:  cpu time    0.0002: real time    0.0002
    --------------------------------------------
      LOOP:  cpu time    0.2290: real time    0.2347

 eigenvalue-minimisations  :    48
 total energy-change (2. order) :-0.8866904E-06  (-0.1327493E-07)
 number of electron       8.0000000 magnetization 
 augmentation part        0.1809819 magnetization 

 Free energy of the ion-electron system (eV)
  ---------------------------------------------------
  alpha Z        PSCENC =         0.25180034
  Ewald energy   TEWEN  =       123.52629404
  -Hartree energ DENC   =      -279.76782683
  -exchange      EXHF   =         0.00000000
  -V(xc)+E(xc)   XCENC  =        24.57191854
  PAW double counting   =       445.94034212     -446.71543007
  entropy T*S    EENTRO =        -0.00000000
  eigenvalues    EBANDS =       -88.84121434
  atomic energy  EATOM  =       197.04175453
  Solvation  Ediel_sol  =         0.00000000
  ---------------------------------------------------
  free energy    TOTEN  =       -23.99236167 eV

  energy without entropy =      -23.99236167  energy(sigma->0) =      -23.99236167


--------------------------------------------------------------------------------------------------------




 average (electrostatic) potential at core
  the test charge radii are     0.5201  0.6991
  (the norm of the test charge is              1.0000)
       1 -41.3523       2 -41.2527       3 -41.6445       4 -41.3388       5 -58.0563
 
 
 
 E-fermi :  -8.1602     XC(G=0):  -0.7416     alpha+bet : -0.2190


 k-point     1 :       0.2500    0.2500    0.2500
  band No.  band energies     occupation 
      1     -16.7608      2.00000
      2      -9.3629      2.00000
      3      -9.1753      2.00000
      4      -9.1215      2.00000
      5      -0.3316      0.00000
      6       0.5518      0.00000
      7       0.6710      0.00000
      8       0.7031      0.00000

 k-point     2 :      -0.2500    0.2500    0.2500
  band No.  band energies     occupation 
      1     -16.7608      2.00000
      2      -9.3629      2.00000
      3      -9.1752      2.00000
      4      -9.1215      2.00000
      5      -0.3339      0.00000
      6       0.5383      0.00000
      7       0.6866      0.00000
      8       0.7119      0.00000

 k-point     3 :       0.2500   -0.2500    0.2500
  band No.  band energies     occupation 
      1     -16.7608      2.00000
      2      -9.3630      2.00000
      3      -9.1753      2.00000
      4      -9.1217      2.00000
      5      -0.3332      0.00000
      6       0.5468      0.00000
      7       0.6822      0.00000
      8       0.7059      0.00000

 k-point     4 :      -0.2500   -0.2500    0.2500
  band No.  band energies     occupation 
      1     -16.7608      2.00000
      2      -9.3631      2.00000
      3      -9.1753      2.00000
      4      -9.1216      2.00000
      5      -0.3407      0.00000
      6       0.5686      0.00000
      7       0.6916      0.00000
      8       0.7269      0.00000


--------------------------------------------------------------------------------------------------------


 soft charge-density along one line, spin component           1
         0         1         2         3         4         5         6         7         8         9
 total charge-density along one line
 
 pseudopotential strength for first ion, spin component:           1
 -2.340  -4.031  -0.001  -0.001   0.001
 -4.031  -6.860  -0.003  -0.004   0.002
 -0.001  -0.003  -0.338   0.002  -0.001
 -0.001  -0.004   0.002  -0.337  -0.001
  0.001   0.002  -0.001  -0.001  -0.339
 total augmentation occupancy for first ion, spin component:           1
  3.467  -0.626   0.225   0.313  -0.130
 -0.626   0.127  -0.042  -0.058   0.024
  0.225  -0.042   0.020   0.017  -0.007
  0.313  -0.058   0.017   0.032  -0.010
 -0.130   0.024  -0.007  -0.010   0.012


------------------------ aborting loop because EDIFF is reached ----------------------------------------


    CHARGE:  cpu time    0.0136: real time    0.0139
    FORLOC:  cpu time    0.0094: real time    0.0095
    FORNL :  cpu time    0.0166: real time    0.0168
    STRESS:  cpu time    0.1305: real time    0.1321
    FORCOR:  cpu time    0.1039: real time    0.1062
    FORHAR:  cpu time    0.0338: real time    0.0345
    MIXING:  cpu time    0.0042: real time    0.0042
    OFIELD:  cpu time    0.0000: real time    0.0000

  FORCE on cell =-STRESS in cart. coord.  units (eV):
  Direction    XX          YY          ZZ          XY          YZ          ZX
  --------------------------------------------------------------------------------------
  Alpha Z     0.25180     0.25180     0.25180
  Ewald      42.23644    38.70234    42.58749     0.99759    -0.74962    -0.86547
  Hartree    95.34309    88.98352    95.44215    -0.06212    -0.49778    -0.43591
  E(xc)     -27.02687   -27.02755   -27.02793    -0.00338    -0.00219    -0.00226
  Local    -196.95704  -185.92179  -197.30872    -0.47429     1.19521     1.18526
  n-local   -15.47137   -15.58351   -15.48474    -0.05506    -0.00368     0.00451
  augment     0.12724     0.11660     0.12654    -0.00461     0.00032     0.00089
  Kinetic   100.02283   100.05741   100.07119     0.16247     0.10902     0.10546
  Fock        0.00000     0.00000     0.00000     0.00000     0.00000     0.00000
  -------------------------------------------------------------------------------------
  Total      -1.47389    -0.42118    -1.34222     0.56060     0.05127    -0.00752
  in kB      -2.45452    -0.70141    -2.23524     0.93359     0.08539    -0.01252
  external pressure =       -1.80 kB  Pullay stress =        0.00 kB

  kinetic pressure (ideal gas correction) =      0.02 kB
  total pressure  =     -1.78 kB
  Total+kin.    -2.430      -0.695      -2.205       0.934       0.087       0.005

 VOLUME and BASIS-vectors are now :
 -----------------------------------------------------------------------------
  energy-cutoff  :      400.00
  volume of cell :      962.07
      direct lattice vectors                 reciprocal lattice vectors
     9.719244695  0.000000000  0.000000000     0.102888654 -0.001053674  0.002285710
     0.104508174 10.204963563  0.000000000     0.000000000  0.097991531  0.002119029
    -0.217633873 -0.209755441  9.699847793     0.000000000  0.000000000  0.103094401

  length of vectors
     9.719244695 10.205498679  9.704556097     0.102919433  0.098014440  0.103094401


 FORCES acting on ions
    electron-ion (+dipol)            ewald-force                    non-local-force                 convergence-correction
 -----------------------------------------------------------------------------------------------
   -.165E+02 0.286E+02 0.397E+02   0.179E+02 -.311E+02 -.433E+02   -.166E+01 0.288E+01 0.401E+01   -.299E-04 -.843E-04 -.172E-04
   0.505E+02 -.626E+01 0.348E+01   -.544E+02 0.674E+01 -.377E+01   0.497E+01 -.608E+00 0.338E+00   -.831E-05 -.569E-04 0.774E-05
   -.238E+02 -.476E+02 0.851E+00   0.266E+02 0.532E+02 -.926E+00   -.256E+01 -.514E+01 0.102E+00   -.192E-04 0.417E-05 0.800E-05
   -.107E+02 0.247E+02 -.439E+02   0.117E+02 -.269E+02 0.477E+02   -.106E+01 0.250E+01 -.441E+01   -.360E-04 -.817E-04 0.206E-04
   0.128E+01 0.150E+01 -.221E+00   -.168E+01 -.198E+01 0.252E+00   -.495E+00 -.537E+00 -.162E-02   -.192E-03 -.234E-03 0.369E-04
 -----------------------------------------------------------------------------------------------
   0.807E+00 0.909E+00 -.369E-01   0.000E+00 0.355E-14 0.711E-14   -.807E+00 -.908E+00 0.364E-01   -.286E-03 -.453E-03 0.561E-04
 
 
 POSITION                                       TOTAL-FORCE (eV/Angst)
 -----------------------------------------------------------------------------------
      5.20223      4.06038      3.45750        -0.220346      0.361394      0.479696
      3.72575      4.81595      4.24140         0.995974     -0.135181      0.049471
      5.32967      5.64614      4.30084         0.235229      0.412461      0.026952
      5.07897      4.14051      5.27336        -0.122000      0.376517     -0.585880
      4.84650      4.67831      4.31861        -0.889311     -1.015055      0.029352
 -----------------------------------------------------------------------------------
    total drift:                               -0.000455      0.000136     -0.000409


--------------------------------------------------------------------------------------------------------



  FREE ENERGIE OF THE ION-ELECTRON SYSTEM (eV)
  ---------------------------------------------------
  free  energy   TOTEN  =       -23.99236167 eV

  energy  without entropy=      -23.99236167  energy(sigma->0) =      -23.99236167
 
 d Force =-0.9458468E-02[-0.104E-01,-0.853E-02]  d Energy =-0.9463915E-02 0.545E-05
 d Force = 0.5801673E+00[ 0.578E+00, 0.582E+00]  d Ewald  = 0.5801647E+00 0.253E-05


--------------------------------------------------------------------------------------------------------


    POTLOK:  cpu time    0.1062: real time    0.1097


--------------------------------------------------------------------------------------------------------


 stress matrix after NEB project (eV)
     -1.47389      0.56060     -0.00752
      0.56060     -0.42118      0.05127
     -0.00752      0.05127     -1.34222
  FORCES: max atom, RMS     1.349842    0.891079
  FORCE total and by dimension    1.992514    1.015055
  Stress total and by dimension    2.187509    1.473887
           RANDOM_SEED =         581353665               30                0
   IONSTEP:  cpu time    0.0001: real time    0.0001

  ENERGY OF THE ELECTRON-ION-THERMOSTAT SYSTEM (eV)
  ---------------------------------------------------
% ion-electron   TOTEN  =       -23.992362  see above
  kinetic energy EKIN   =         0.013713
  kin. lattice  EKIN_LAT=         0.000000  (temperature   26.52 K)
  nose potential ES     =         0.000000
  nose kinetic   EPS    =         0.000000
  ---------------------------------------------------
  total energy   ETOTAL =       -23.978648 eV

  maximum distance moved by ions :      0.48E-03


 mean value of Nose-termostat <S>:     1.000 mean value of <T> :    51.041
 mean temperature <T/S>/<1/S>  :    51.041

    WAVPRE:  cpu time    0.0408: real time    0.0416
    FEWALD:  cpu time    0.0003: real time    0.0003
    ORTHCH:  cpu time    0.0076: real time    0.0078
 Prediction of Wavefunctions ALPHA= 2.083 BETA=-1.109
    POTLOK:  cpu time    0.1028: real time    0.1064
    EDDIAG:  cpu time    0.0285: real time    0.0292
     LOOP+:  cpu time    1.8303: real time    1.8759
    4ORBIT:  cpu time    0.0000: real time    0.0006

 total amount of memory used by VASP MPI-rank0    52290. kBytes
=======================================================================

   base      :      30000. kBytes
   nonl-proj :       2592. kBytes
   fftplans  :       7001. kBytes
   grid      :      11005. kBytes
   one-center:          6. kBytes
   wavefun   :       1686. kBytes
 
  
  
 General timing and accounting informations for this job:
 ========================================================
  
                  Total CPU time used (sec):       22.541
                            User time (sec):       20.871
                          System time (sec):        1.671
                         Elapsed time (sec):       23.424
  
                   Maximum memory used (kb):      167036.
                   Average memory used (kb):           0.
  
                          Minor page faults:       229684
                          Major page faults:          200
                 Voluntary context switches:          623
