<?xml version="1.0" encoding="ISO-8859-1"?>
<modeling>
 <generator>
  <i name="program" type="string">vasp </i>
  <i name="version" type="string">5.4.4.18Apr17-6-g9f103f2a35  </i>
  <i name="subversion" type="string">(build Nov 25 2021 15:25:00) complex            parallel </i>
  <i name="platform" type="string">LinuxIFC </i>
  <i name="date" type="string">2022 02 21 </i>
  <i name="time" type="string">10:17:13 </i>
 </generator>
 <incar>
  <i type="string" name="PREC">a</i>
  <i type="string" name="ALGO">Fast</i>
  <i type="int" name="NELM">   120</i>
  <i type="int" name="NELMIN">     4</i>
  <i type="int" name="IBRION">     0</i>
  <i name="EDIFF">      0.00000100</i>
  <i type="int" name="NSW">    10</i>
  <i type="int" name="ISIF">     2</i>
  <i type="int" name="ISYM">     0</i>
  <i name="ENCUT">    400.00000000</i>
  <i name="POTIM">      0.50000000</i>
  <i type="logical" name="LREAL"> F  </i>
  <i type="int" name="ISMEAR">     0</i>
  <i name="SIGMA">      0.20000000</i>
  <i name="KSPACING">      0.50000000</i>
  <i type="logical" name="KGAMMA"> F  </i>
  <i name="PSTRESS">      0.00000000</i>
  <i type="logical" name="LWAVE"> F  </i>
  <i type="logical" name="LCHARG"> F  </i>
  <v type="int" name="KPOINT_BSE">    -1     0     0     0</v>
  <i type="int" name="NELM">   120</i>
 </incar>
 <structure name="primitive_cell" >
  <crystal>
   <varray name="basis" >
    <v>       9.71924470       0.00000000       0.00000000 </v>
    <v>       0.10450817      10.20496356       0.00000000 </v>
    <v>      -0.21763387      -0.20975544       9.69984779 </v>
   </varray>
   <i name="volume">    962.07492178 </i>
   <varray name="rec_basis" >
    <v>       0.10288865      -0.00105367       0.00228571 </v>
    <v>       0.00000000       0.09799153       0.00211903 </v>
    <v>       0.00000000       0.00000000       0.10309440 </v>
   </varray>
  </crystal>
  <varray name="positions" >
   <v>      -0.46198919       0.40686089       0.36052136 </v>
   <v>      -0.49669134       0.46726006       0.44527733 </v>
   <v>      -0.47222936       0.41711949      -0.46110971 </v>
   <v>       0.39473962       0.48026968       0.43874556 </v>
   <v>      -0.44778942      -0.43491525       0.44196614 </v>
  </varray>
 </structure>
 <varray name="primitive_index" >
  <v type="int" >        1 </v>
  <v type="int" >        5 </v>
  <v type="int" >        4 </v>
  <v type="int" >        2 </v>
  <v type="int" >        3 </v>
 </varray>
 <kpoints>
  <generation param="Monkhorst-Pack">
   <v type="int" name="divisions">       2        2        2 </v>
   <v name="usershift">      0.00000000       0.00000000       0.00000000 </v>
   <v name="genvec1">      0.50000000      -0.00000000       0.00000000 </v>
   <v name="genvec2">      0.00000000       0.50000000       0.00000000 </v>
   <v name="genvec3">      0.00000000       0.00000000       0.50000000 </v>
   <v name="shift">      0.50000000       0.50000000       0.50000000 </v>
  </generation>
  <varray name="kpointlist" >
   <v>       0.25000000       0.25000000       0.25000000 </v>
   <v>      -0.25000000       0.25000000       0.25000000 </v>
   <v>       0.25000000      -0.25000000       0.25000000 </v>
   <v>      -0.25000000      -0.25000000       0.25000000 </v>
  </varray>
  <varray name="weights" >
   <v>       0.25000000 </v>
   <v>       0.25000000 </v>
   <v>       0.25000000 </v>
   <v>       0.25000000 </v>
  </varray>
 </kpoints>
 <parameters>
  <separator name="general" >
   <i type="string" name="SYSTEM">unknown system</i>
   <i type="logical" name="LCOMPAT"> F  </i>
  </separator>
  <separator name="electronic" >
   <i type="string" name="PREC">a</i>
   <i name="ENMAX">    400.00000000</i>
   <i name="ENAUG">    644.87300000</i>
   <i name="EDIFF">      0.00000100</i>
   <i type="int" name="IALGO">    68</i>
   <i type="int" name="IWAVPR">    12</i>
   <i type="int" name="NBANDS">     8</i>
   <i name="NELECT">      8.00000000</i>
   <i type="int" name="TURBO">     0</i>
   <i type="int" name="IRESTART">     0</i>
   <i type="int" name="NREBOOT">     0</i>
   <i type="int" name="NMIN">     0</i>
   <i name="EREF">      0.00000000</i>
   <separator name="electronic smearing" >
    <i type="int" name="ISMEAR">     0</i>
    <i name="SIGMA">      0.20000000</i>
    <i name="KSPACING">      0.50000000</i>
    <i type="logical" name="KGAMMA"> F  </i>
   </separator>
   <separator name="electronic projectors" >
    <i type="logical" name="LREAL"> F  </i>
    <v name="ROPT">      0.00000000      0.00000000</v>
    <i type="int" name="LMAXPAW">  -100</i>
    <i type="int" name="LMAXMIX">     2</i>
    <i type="logical" name="NLSPLINE"> F  </i>
   </separator>
   <separator name="electronic startup" >
    <i type="int" name="ISTART">     0</i>
    <i type="int" name="ICHARG">     2</i>
    <i type="int" name="INIWAV">     1</i>
   </separator>
   <separator name="electronic spin" >
    <i type="int" name="ISPIN">     1</i>
    <i type="logical" name="LNONCOLLINEAR"> F  </i>
    <v name="MAGMOM">      1.00000000      1.00000000      1.00000000      1.00000000      1.00000000</v>
    <i name="NUPDOWN">     -1.00000000</i>
    <i type="logical" name="LSORBIT"> F  </i>
    <v name="SAXIS">      0.00000000      0.00000000      1.00000000</v>
    <i type="logical" name="LSPIRAL"> F  </i>
    <v name="QSPIRAL">      0.00000000      0.00000000      0.00000000</v>
    <i type="logical" name="LZEROZ"> F  </i>
   </separator>
   <separator name="electronic exchange-correlation" >
    <i type="logical" name="LASPH"> F  </i>
    <i type="logical" name="LMETAGGA"> F  </i>
   </separator>
   <separator name="electronic convergence" >
    <i type="int" name="NELM">   120</i>
    <i type="int" name="NELMDL">    -5</i>
    <i type="int" name="NELMIN">     4</i>
    <i name="ENINI">    400.00000000</i>
    <separator name="electronic convergence detail" >
     <i type="logical" name="LDIAG"> T  </i>
     <i type="logical" name="LSUBROT"> F  </i>
     <i name="WEIMIN">      0.00100000</i>
     <i name="EBREAK">      0.00000003</i>
     <i name="DEPER">      0.30000000</i>
     <i type="int" name="NRMM">     4</i>
     <i name="TIME">      0.40000000</i>
    </separator>
   </separator>
   <separator name="electronic mixer" >
    <i name="AMIX">      0.40000000</i>
    <i name="BMIX">      1.00000000</i>
    <i name="AMIN">      0.10000000</i>
    <i name="AMIX_MAG">      1.60000000</i>
    <i name="BMIX_MAG">      1.00000000</i>
    <separator name="electronic mixer details" >
     <i type="int" name="IMIX">     4</i>
     <i type="logical" name="MIXFIRST"> F  </i>
     <i type="int" name="MAXMIX">   -45</i>
     <i name="WC">    100.00000000</i>
     <i type="int" name="INIMIX">     1</i>
     <i type="int" name="MIXPRE">     1</i>
     <i type="int" name="MREMOVE">     5</i>
    </separator>
   </separator>
   <separator name="electronic dipolcorrection" >
    <i type="logical" name="LDIPOL"> F  </i>
    <i type="logical" name="LMONO"> F  </i>
    <i type="int" name="IDIPOL">     0</i>
    <i name="EPSILON">      1.00000000</i>
    <v name="DIPOL">   -100.00000000   -100.00000000   -100.00000000</v>
    <i name="EFIELD">      0.00000000</i>
   </separator>
  </separator>
  <separator name="grids" >
   <i type="int" name="NGX">    64</i>
   <i type="int" name="NGY">    70</i>
   <i type="int" name="NGZ">    64</i>
   <i type="int" name="NGXF">   128</i>
   <i type="int" name="NGYF">   140</i>
   <i type="int" name="NGZF">   128</i>
   <i type="logical" name="ADDGRID"> F  </i>
  </separator>
  <separator name="ionic" >
   <i type="int" name="NSW">    10</i>
   <i type="int" name="IBRION">     0</i>
   <i type="int" name="MDALGO">     0</i>
   <i type="int" name="ISIF">     2</i>
   <i name="PSTRESS">      0.00000000</i>
   <i name="EDIFFG">      0.00001000</i>
   <i type="int" name="NFREE">     0</i>
   <i name="POTIM">      0.50000000</i>
   <i name="SMASS">     -3.00000000</i>
   <i name="SCALEE">      1.00000000</i>
  </separator>
  <separator name="ionic md" >
   <i name="TEBEG">      0.00010000</i>
   <i name="TEEND">      0.00010000</i>
   <i type="int" name="NBLOCK">     1</i>
   <i type="int" name="KBLOCK">    10</i>
   <i type="int" name="NPACO">   256</i>
   <i name="APACO">     16.00000000</i>
  </separator>
  <separator name="symmetry" >
   <i type="int" name="ISYM">     0</i>
   <i name="SYMPREC">      0.00001000</i>
  </separator>
  <separator name="dos" >
   <i type="int" name="LORBIT">     0</i>
   <v name="RWIGS">     -1.00000000     -1.00000000</v>
   <i type="int" name="NEDOS">   301</i>
   <i name="EMIN">     10.00000000</i>
   <i name="EMAX">    -10.00000000</i>
   <i name="EFERMI">      0.00000000</i>
  </separator>
  <separator name="writing" >
   <i type="int" name="NWRITE">     2</i>
   <i type="logical" name="LWAVE"> F  </i>
   <i type="logical" name="LDOWNSAMPLE"> F  </i>
   <i type="logical" name="LCHARG"> F  </i>
   <i type="logical" name="LPARD"> F  </i>
   <i type="logical" name="LVTOT"> F  </i>
   <i type="logical" name="LVHAR"> F  </i>
   <i type="logical" name="LELF"> F  </i>
   <i type="logical" name="LOPTICS"> F  </i>
   <v name="STM">      0.00000000      0.00000000      0.00000000      0.00000000      0.00000000      0.00000000      0.00000000</v>
  </separator>
  <separator name="performance" >
   <i type="int" name="NPAR">     4</i>
   <i type="int" name="NSIM">     4</i>
   <i type="int" name="NBLK">    -1</i>
   <i type="logical" name="LPLANE"> T  </i>
   <i type="logical" name="LSCALAPACK"> T  </i>
   <i type="logical" name="LSCAAWARE"> F  </i>
   <i type="logical" name="LSCALU"> F  </i>
   <i type="logical" name="LASYNC"> F  </i>
   <i type="logical" name="LORBITALREAL"> F  </i>
  </separator>
  <separator name="miscellaneous" >
   <i type="int" name="IDIOT">     3</i>
   <i type="int" name="ISPECIAL">     0</i>
   <i type="logical" name="LMUSIC"> F  </i>
   <v name="POMASS">      1.00000000     12.01100000</v>
   <v name="DARWINR">      0.00000000      0.00000000</v>
   <v name="DARWINV">      1.00000000      1.00000000</v>
   <i type="logical" name="LCORR"> T  </i>
  </separator>
  <i type="logical" name="GGA_COMPAT"> T  </i>
  <i type="logical" name="LBERRY"> F  </i>
  <i type="int" name="ICORELEVEL">     0</i>
  <i type="logical" name="LDAU"> F  </i>
  <i type="int" name="I_CONSTRAINED_M">     0</i>
  <separator name="electronic exchange-correlation" >
   <i type="string" name="GGA">--</i>
   <i type="int" name="VOSKOWN">     0</i>
   <i type="logical" name="LHFCALC"> F  </i>
   <i type="string" name="PRECFOCK"></i>
   <i type="logical" name="LSYMGRAD"> F  </i>
   <i type="logical" name="LHFONE"> F  </i>
   <i type="logical" name="LRHFCALC"> F  </i>
   <i type="logical" name="LTHOMAS"> F  </i>
   <i type="logical" name="LMODELHF"> F  </i>
   <i name="ENCUT4O">     -1.00000000</i>
   <i type="int" name="EXXOEP">     0</i>
   <i type="int" name="FOURORBIT">     0</i>
   <i name="AEXX">      0.00000000</i>
   <i name="HFALPHA">      0.00000000</i>
   <i name="MCALPHA">      0.00000000</i>
   <i name="ALDAX">      1.00000000</i>
   <i name="AGGAX">      1.00000000</i>
   <i name="ALDAC">      1.00000000</i>
   <i name="AGGAC">      1.00000000</i>
   <i type="int" name="NKREDX">     1</i>
   <i type="int" name="NKREDY">     1</i>
   <i type="int" name="NKREDZ">     1</i>
   <i type="logical" name="SHIFTRED"> F  </i>
   <i type="logical" name="ODDONLY"> F  </i>
   <i type="logical" name="EVENONLY"> F  </i>
   <i type="int" name="LMAXFOCK">     0</i>
   <i type="int" name="NMAXFOCKAE">     0</i>
   <i type="logical" name="LFOCKAEDFT"> F  </i>
   <i name="HFSCREEN">      0.00000000</i>
   <i name="HFSCREENC">      0.00000000</i>
   <i type="int" name="NBANDSGWLOW">     0</i>
  </separator>
  <separator name="vdW DFT" >
   <i type="logical" name="LUSE_VDW"> F  </i>
   <i name="Zab_VDW">     -0.84910000</i>
   <i name="PARAM1">      0.12340000</i>
   <i name="PARAM2">      1.00000000</i>
   <i name="PARAM3">      0.00000000</i>
  </separator>
  <separator name="model GW" >
   <i type="int" name="MODEL_GW">     0</i>
   <i name="MODEL_EPS0">    115.44899061</i>
   <i name="MODEL_ALPHA">      1.00000000</i>
  </separator>
  <separator name="linear response parameters" >
   <i type="logical" name="LEPSILON"> F  </i>
   <i type="logical" name="LRPA"> F  </i>
   <i type="logical" name="LNABLA"> F  </i>
   <i type="logical" name="LVEL"> F  </i>
   <i type="int" name="KINTER">     0</i>
   <i name="CSHIFT">      0.10000000</i>
   <i name="OMEGAMAX">     -1.00000000</i>
   <i name="DEG_THRESHOLD">      0.00200000</i>
   <i name="RTIME">     -0.10000000</i>
   <i name="WPLASMAI">      0.00000000</i>
   <v name="DFIELD">      0.00000000      0.00000000      0.00000000</v>
   <v name="WPLASMA">      0.00000000      0.00000000      0.00000000      0.00000000      0.00000000      0.00000000      0.00000000      0.00000000      0.00000000</v>
  </separator>
  <separator name="orbital magnetization" >
   <i type="logical" name="NUCIND"> F  </i>
   <v name="MAGPOS">      0.00000000      0.00000000      0.00000000</v>
   <i type="logical" name="LNICSALL"> T  </i>
   <i type="logical" name="ORBITALMAG"> F  </i>
   <i type="logical" name="LMAGBLOCH"> F  </i>
   <i type="logical" name="LCHIMAG"> F  </i>
   <i type="logical" name="LGAUGE"> T  </i>
   <i type="int" name="MAGATOM">     0</i>
   <v name="MAGDIPOL">      0.00000000      0.00000000      0.00000000</v>
   <v name="AVECCONST">      0.00000000      0.00000000      0.00000000</v>
  </separator>
  <separator name="response functions" >
   <i type="logical" name="LADDER"> F  </i>
   <i type="logical" name="LRPAFORCE"> F  </i>
   <i type="logical" name="LFXC"> F  </i>
   <i type="logical" name="LHARTREE"> T  </i>
   <i type="int" name="IBSE">     0</i>
   <v type="int" name="KPOINT">    -1     0     0     0</v>
   <i type="logical" name="LTCTE"> F  </i>
   <i type="logical" name="LTETE"> F  </i>
   <i type="logical" name="LTRIPLET"> F  </i>
   <i type="logical" name="LFXCEPS"> F  </i>
   <i type="logical" name="LFXHEG"> F  </i>
   <i type="int" name="NATURALO">     2</i>
   <i type="logical" name="L2ORDER"> F  </i>
   <i type="logical" name="LMP2LT"> F  </i>
   <i type="logical" name="LUSEW"> F  </i>
   <i name="ENCUTGW">     -2.00000000</i>
   <i name="ENCUTGWSOFT">     -2.00000000</i>
   <i name="ENCUTLF">     -1.00000000</i>
   <i type="int" name="LMAXMP2">    -1</i>
   <i name="SCISSOR">      0.00000000</i>
   <i type="int" name="NOMEGA">     0</i>
   <i type="int" name="NOMEGAR">     0</i>
   <i type="int" name="NBANDSGW">    -1</i>
   <i type="int" name="NBANDSO">    -1</i>
   <i type="int" name="NBANDSV">    -1</i>
   <i type="int" name="NELM">   120</i>
   <i type="int" name="NELMHF">     1</i>
   <i type="int" name="DIM">     3</i>
   <i type="int" name="ANTIRES">     0</i>
   <i name="OMEGAMAX">    -30.00000000</i>
   <i name="OMEGAMIN">    -30.00000000</i>
   <i name="OMEGATL">   -200.00000000</i>
   <i type="int" name="OMEGAGRID">   140</i>
   <i name="CSHIFT">     -0.10000000</i>
   <i type="logical" name="SELFENERGY"> F  </i>
   <i type="logical" name="LSPECTRAL"> F  </i>
   <i type="logical" name="LSPECTRALGW"> F  </i>
   <i type="logical" name="LSINGLES"> F  </i>
   <i type="logical" name="LFERMIGW"> F  </i>
   <i type="logical" name="ODDONLYGW"> F  </i>
   <i type="logical" name="EVENONLYGW"> F  </i>
   <i type="int" name="NKREDLFX">     1</i>
   <i type="int" name="NKREDLFY">     1</i>
   <i type="int" name="NKREDLFZ">     1</i>
   <i type="int" name="MAXMEM">  2800</i>
   <i type="int" name="TELESCOPE">     0</i>
   <i type="int" name="TAUPAR">     1</i>
   <i type="int" name="OMEGAPAR">    -1</i>
   <i name="LAMBDA">      1.00000000</i>
  </separator>
  <separator name="External order field" >
   <i name="OFIELD_KAPPA">      0.00000000</i>
   <v name="OFIELD_K">      0.00000000      0.00000000      0.00000000</v>
   <i name="OFIELD_Q6_NEAR">      0.00000000</i>
   <i name="OFIELD_Q6_FAR">      0.00000000</i>
   <i name="OFIELD_A">      0.00000000</i>
  </separator>
 </parameters>
 <atominfo>
  <atoms>       5 </atoms>
  <types>       2 </types>
  <array name="atoms" >
   <dimension dim="1">ion</dimension>
   <field type="string">element</field>
   <field type="int">atomtype</field>
   <set>
    <rc><c>H </c><c>   1</c></rc>
    <rc><c>H </c><c>   1</c></rc>
    <rc><c>H </c><c>   1</c></rc>
    <rc><c>H </c><c>   1</c></rc>
    <rc><c>C </c><c>   2</c></rc>
   </set>
  </array>
  <array name="atomtypes" >
   <dimension dim="1">type</dimension>
   <field type="int">atomspertype</field>
   <field type="string">element</field>
   <field>mass</field>
   <field>valence</field>
   <field type="string">pseudopotential</field>
   <set>
    <rc><c>   4</c><c>H </c><c>      1.00000000</c><c>      1.00000000</c><c>  PAW_PBE H 15Jun2001                   </c></rc>
    <rc><c>   1</c><c>C </c><c>     12.01100000</c><c>      4.00000000</c><c>  PAW_PBE C 08Apr2002                   </c></rc>
   </set>
  </array>
 </atominfo>
 <structure name="initialpos" >
  <crystal>
   <varray name="basis" >
    <v>       9.71924470       0.00000000       0.00000000 </v>
    <v>       0.10450817      10.20496356       0.00000000 </v>
    <v>      -0.21763387      -0.20975544       9.69984779 </v>
   </varray>
   <i name="volume">    962.07492178 </i>
   <varray name="rec_basis" >
    <v>       0.10288865      -0.00105367       0.00228571 </v>
    <v>       0.00000000       0.09799153       0.00211903 </v>
    <v>       0.00000000       0.00000000       0.10309440 </v>
   </varray>
  </crystal>
  <varray name="positions" >
   <v>       0.53801081       0.40686089       0.36052136 </v>
   <v>       0.39473962       0.48026968       0.43874556 </v>
   <v>       0.55221058       0.56508475       0.44196614 </v>
   <v>       0.52777064       0.41711949       0.53889029 </v>
   <v>       0.50330866       0.46726006       0.44527733 </v>
  </varray>
  <varray name="velocities" >
   <v>       0.00000027       0.00000041       0.00000061 </v>
   <v>      -0.00000083      -0.00000009      -0.00000079 </v>
   <v>       0.00000009      -0.00000049       0.00000047 </v>
   <v>      -0.00000040       0.00000010      -0.00000004 </v>
   <v>       0.00000007       0.00000001      -0.00000002 </v>
  </varray>
 </structure>
 <calculation>
  <scstep>
   <time name="dav">    0.16    0.18</time>
   <time name="total">    0.28    0.33</time>
   <energy>
    <i name="alphaZ">      0.25180034 </i>
    <i name="ewald">    131.05716947 </i>
    <i name="hartreedc">   -244.45149398 </i>
    <i name="XCdc">     22.10163444 </i>
    <i name="pawpsdc">    117.05815612 </i>
    <i name="pawaedc">   -117.66307307 </i>
    <i name="eentropy">     -0.00000000 </i>
    <i name="bandstr">    -92.05158885 </i>
    <i name="atom">    197.04175453 </i>
    <i name="e_fr_energy">     13.34435901 </i>
    <i name="e_wo_entrp">     13.34435901 </i>
    <i name="e_0_energy">     13.34435901 </i>
   </energy>
  </scstep>
  <scstep>
   <time name="dav">    0.12    0.12</time>
   <time name="total">    0.12    0.12</time>
   <energy>
    <i name="e_fr_energy">    -23.22333119 </i>
    <i name="e_wo_entrp">    -23.22333119 </i>
    <i name="e_0_energy">    -23.22333119 </i>
   </energy>
  </scstep>
  <scstep>
   <time name="dav">    0.14    0.14</time>
   <time name="total">    0.14    0.15</time>
   <energy>
    <i name="e_fr_energy">    -27.61282331 </i>
    <i name="e_wo_entrp">    -27.61282331 </i>
    <i name="e_0_energy">    -27.61282331 </i>
   </energy>
  </scstep>
  <scstep>
   <time name="dav">    0.20    0.20</time>
   <time name="total">    0.20    0.20</time>
   <energy>
    <i name="e_fr_energy">    -27.75360673 </i>
    <i name="e_wo_entrp">    -27.75360673 </i>
    <i name="e_0_energy">    -27.75360673 </i>
   </energy>
  </scstep>
  <scstep>
   <time name="dav">    0.17    0.17</time>
   <time name="total">    0.19    0.19</time>
   <energy>
    <i name="e_fr_energy">    -27.75365179 </i>
    <i name="e_wo_entrp">    -27.75365179 </i>
    <i name="e_0_energy">    -27.75365179 </i>
   </energy>
  </scstep>
  <scstep>
   <time name="diag">    0.03    0.05</time>
   <time name="diis">    0.12    0.12</time>
   <time name="orth">    0.00    0.00</time>
   <time name="total">    0.28    0.30</time>
   <energy>
    <i name="e_fr_energy">    -24.65421523 </i>
    <i name="e_wo_entrp">    -24.65421523 </i>
    <i name="e_0_energy">    -24.65421523 </i>
   </energy>
  </scstep>
  <scstep>
   <time name="diag">    0.03    0.03</time>
   <time name="diis">    0.12    0.12</time>
   <time name="orth">    0.00    0.00</time>
   <time name="total">    0.28    0.28</time>
   <energy>
    <i name="e_fr_energy">    -24.12589374 </i>
    <i name="e_wo_entrp">    -24.12589374 </i>
    <i name="e_0_energy">    -24.12589374 </i>
   </energy>
  </scstep>
  <scstep>
   <time name="diag">    0.03    0.03</time>
   <time name="diis">    0.12    0.12</time>
   <time name="orth">    0.00    0.00</time>
   <time name="total">    0.28    0.28</time>
   <energy>
    <i name="e_fr_energy">    -23.97698863 </i>
    <i name="e_wo_entrp">    -23.97698863 </i>
    <i name="e_0_energy">    -23.97698863 </i>
   </energy>
  </scstep>
  <scstep>
   <time name="diag">    0.03    0.03</time>
   <time name="diis">    0.12    0.12</time>
   <time name="orth">    0.00    0.00</time>
   <time name="total">    0.28    0.28</time>
   <energy>
    <i name="e_fr_energy">    -23.97121749 </i>
    <i name="e_wo_entrp">    -23.97121749 </i>
    <i name="e_0_energy">    -23.97121749 </i>
   </energy>
  </scstep>
  <scstep>
   <time name="diag">    0.03    0.03</time>
   <time name="diis">    0.12    0.12</time>
   <time name="orth">    0.00    0.00</time>
   <time name="total">    0.27    0.28</time>
   <energy>
    <i name="e_fr_energy">    -23.96542738 </i>
    <i name="e_wo_entrp">    -23.96542738 </i>
    <i name="e_0_energy">    -23.96542738 </i>
   </energy>
  </scstep>
  <scstep>
   <time name="diag">    0.03    0.03</time>
   <time name="diis">    0.12    0.12</time>
   <time name="orth">    0.00    0.00</time>
   <time name="total">    0.27    0.28</time>
   <energy>
    <i name="e_fr_energy">    -23.96573218 </i>
    <i name="e_wo_entrp">    -23.96573218 </i>
    <i name="e_0_energy">    -23.96573218 </i>
   </energy>
  </scstep>
  <scstep>
   <time name="diag">    0.03    0.03</time>
   <time name="diis">    0.12    0.13</time>
   <time name="orth">    0.00    0.00</time>
   <time name="total">    0.27    0.28</time>
   <energy>
    <i name="e_fr_energy">    -23.97578035 </i>
    <i name="e_wo_entrp">    -23.97578035 </i>
    <i name="e_0_energy">    -23.97578035 </i>
   </energy>
  </scstep>
  <scstep>
   <time name="diag">    0.03    0.03</time>
   <time name="diis">    0.12    0.12</time>
   <time name="orth">    0.00    0.00</time>
   <time name="total">    0.28    0.28</time>
   <energy>
    <i name="e_fr_energy">    -23.97611285 </i>
    <i name="e_wo_entrp">    -23.97611285 </i>
    <i name="e_0_energy">    -23.97611285 </i>
   </energy>
  </scstep>
  <scstep>
   <time name="diag">    0.03    0.03</time>
   <time name="diis">    0.12    0.12</time>
   <time name="orth">    0.00    0.00</time>
   <time name="total">    0.27    0.27</time>
   <energy>
    <i name="e_fr_energy">    -23.97893905 </i>
    <i name="e_wo_entrp">    -23.97893905 </i>
    <i name="e_0_energy">    -23.97893905 </i>
   </energy>
  </scstep>
  <scstep>
   <time name="diag">    0.03    0.03</time>
   <time name="diis">    0.12    0.12</time>
   <time name="orth">    0.00    0.00</time>
   <time name="total">    0.27    0.27</time>
   <energy>
    <i name="e_fr_energy">    -23.97922216 </i>
    <i name="e_wo_entrp">    -23.97922216 </i>
    <i name="e_0_energy">    -23.97922216 </i>
   </energy>
  </scstep>
  <scstep>
   <time name="diag">    0.03    0.03</time>
   <time name="diis">    0.12    0.12</time>
   <time name="orth">    0.00    0.00</time>
   <time name="total">    0.27    0.27</time>
   <energy>
    <i name="e_fr_energy">    -23.97942904 </i>
    <i name="e_wo_entrp">    -23.97942904 </i>
    <i name="e_0_energy">    -23.97942904 </i>
   </energy>
  </scstep>
  <scstep>
   <time name="diag">    0.03    0.03</time>
   <time name="diis">    0.12    0.12</time>
   <time name="orth">    0.00    0.00</time>
   <time name="total">    0.27    0.27</time>
   <energy>
    <i name="e_fr_energy">    -23.97946559 </i>
    <i name="e_wo_entrp">    -23.97946559 </i>
    <i name="e_0_energy">    -23.97946559 </i>
   </energy>
  </scstep>
  <scstep>
   <time name="diag">    0.03    0.03</time>
   <time name="diis">    0.12    0.12</time>
   <time name="orth">    0.00    0.00</time>
   <time name="total">    0.27    0.28</time>
   <energy>
    <i name="e_fr_energy">    -23.97947706 </i>
    <i name="e_wo_entrp">    -23.97947706 </i>
    <i name="e_0_energy">    -23.97947706 </i>
   </energy>
  </scstep>
  <scstep>
   <time name="diag">    0.03    0.03</time>
   <time name="diis">    0.09    0.10</time>
   <time name="orth">    0.00    0.00</time>
   <time name="total">    0.25    0.25</time>
   <energy>
    <i name="e_fr_energy">    -23.97948059 </i>
    <i name="e_wo_entrp">    -23.97948059 </i>
    <i name="e_0_energy">    -23.97948059 </i>
   </energy>
  </scstep>
  <scstep>
   <time name="diag">    0.03    0.03</time>
   <time name="diis">    0.10    0.10</time>
   <time name="orth">    0.00    0.00</time>
   <time name="total">    0.25    0.25</time>
   <energy>
    <i name="e_fr_energy">    -23.97948160 </i>
    <i name="e_wo_entrp">    -23.97948160 </i>
    <i name="e_0_energy">    -23.97948160 </i>
   </energy>
  </scstep>
  <scstep>
   <time name="diag">    0.03    0.03</time>
   <time name="diis">    0.10    0.10</time>
   <time name="orth">    0.00    0.00</time>
   <time name="total">    0.25    0.25</time>
   <energy>
    <i name="e_fr_energy">    -23.97948312 </i>
    <i name="e_wo_entrp">    -23.97948312 </i>
    <i name="e_0_energy">    -23.97948312 </i>
   </energy>
  </scstep>
  <scstep>
   <time name="diag">    0.03    0.03</time>
   <time name="diis">    0.09    0.09</time>
   <time name="orth">    0.00    0.00</time>
   <time name="total">    0.23    0.23</time>
   <energy>
    <i name="alphaZ">      0.25180034 </i>
    <i name="ewald">    131.05716947 </i>
    <i name="hartreedc">   -286.37767962 </i>
    <i name="XCdc">     24.92123079 </i>
    <i name="pawpsdc">    491.36240986 </i>
    <i name="pawaedc">   -492.16403708 </i>
    <i name="eentropy">     -0.00000000 </i>
    <i name="bandstr">    -90.07213164 </i>
    <i name="atom">    197.04175453 </i>
    <i name="e_fr_energy">    -23.97948334 </i>
    <i name="e_wo_entrp">    -23.97948334 </i>
    <i name="e_0_energy">    -23.97948334 </i>
   </energy>
  </scstep>
  <structure>
   <crystal>
    <varray name="basis" >
     <v>       9.71924470       0.00000000       0.00000000 </v>
     <v>       0.10450817      10.20496356       0.00000000 </v>
     <v>      -0.21763387      -0.20975544       9.69984779 </v>
    </varray>
    <i name="volume">    962.07492178 </i>
    <varray name="rec_basis" >
     <v>       0.10288865      -0.00105367       0.00228571 </v>
     <v>       0.00000000       0.09799153       0.00211903 </v>
     <v>       0.00000000       0.00000000       0.10309440 </v>
    </varray>
   </crystal>
   <varray name="positions" >
    <v>       0.53801081       0.40686089       0.36052136 </v>
    <v>       0.39473962       0.48026968       0.43874556 </v>
    <v>       0.55221058       0.56508475       0.44196614 </v>
    <v>       0.52777064       0.41711949       0.53889029 </v>
    <v>       0.50330866       0.46726006       0.44527733 </v>
   </varray>
  </structure>
  <varray name="forces" >
   <v>       0.19996193      -0.33465388      -0.65936126 </v>
   <v>      -1.22044760       0.14594168      -0.18888088 </v>
   <v>      -0.08919064      -0.47722020       0.15203647 </v>
   <v>       0.32367081      -0.19643259       0.78774525 </v>
   <v>       0.78530331       0.86213612      -0.09139833 </v>
  </varray>
  <varray name="stress" >
   <v>       1.62505711      -0.89528090       0.34572074 </v>
   <v>      -0.89528090      -0.89591401       0.17016153 </v>
   <v>       0.34572074       0.17016153       1.43666144 </v>
  </varray>
  <energy>
   <i name="e_fr_energy">    -23.97948334 </i>
   <i name="e_wo_entrp">    -23.97948334 </i>
   <i name="e_0_energy">     -0.00000000 </i>
   <i name="kinetic">      0.00099001 </i>
   <i name="lattice kinetic">      0.00000000 </i>
   <i name="nosepot">      0.00000000 </i>
   <i name="nosekinetic">      0.00000000 </i>
   <i name="total">    -23.97849333 </i>
  </energy>
  <time name="totalsc">    5.93    6.08</time>
 </calculation>
 <calculation>
  <scstep>
   <time name="dav">    0.12    0.12</time>
   <time name="total">    0.24    0.24</time>
   <energy>
    <i name="alphaZ">      0.25180034 </i>
    <i name="ewald">    130.70530780 </i>
    <i name="hartreedc">   -286.18472323 </i>
    <i name="XCdc">     24.91134200 </i>
    <i name="pawpsdc">    491.35758691 </i>
    <i name="pawaedc">   -492.15923451 </i>
    <i name="eentropy">     -0.00000000 </i>
    <i name="bandstr">    -89.91090288 </i>
    <i name="atom">    197.04175453 </i>
    <i name="e_fr_energy">    -23.98706903 </i>
    <i name="e_wo_entrp">    -23.98706903 </i>
    <i name="e_0_energy">    -23.98706903 </i>
   </energy>
  </scstep>
  <scstep>
   <time name="diag">    0.03    0.03</time>
   <time name="diis">    0.12    0.12</time>
   <time name="orth">    0.00    0.00</time>
   <time name="total">    0.27    0.28</time>
   <energy>
    <i name="e_fr_energy">    -23.98702413 </i>
    <i name="e_wo_entrp">    -23.98702413 </i>
    <i name="e_0_energy">    -23.98702413 </i>
   </energy>
  </scstep>
  <scstep>
   <time name="diag">    0.03    0.03</time>
   <time name="diis">    0.12    0.12</time>
   <time name="orth">    0.00    0.00</time>
   <time name="total">    0.27    0.27</time>
   <energy>
    <i name="e_fr_energy">    -23.98701810 </i>
    <i name="e_wo_entrp">    -23.98701810 </i>
    <i name="e_0_energy">    -23.98701810 </i>
   </energy>
  </scstep>
  <scstep>
   <time name="diag">    0.03    0.03</time>
   <time name="diis">    0.12    0.12</time>
   <time name="orth">    0.00    0.00</time>
   <time name="total">    0.27    0.27</time>
   <energy>
    <i name="e_fr_energy">    -23.98701676 </i>
    <i name="e_wo_entrp">    -23.98701676 </i>
    <i name="e_0_energy">    -23.98701676 </i>
   </energy>
  </scstep>
  <scstep>
   <time name="diag">    0.03    0.03</time>
   <time name="diis">    0.16    0.17</time>
   <time name="orth">    0.00    0.00</time>
   <time name="total">    0.31    0.32</time>
   <energy>
    <i name="e_fr_energy">    -23.98701823 </i>
    <i name="e_wo_entrp">    -23.98701823 </i>
    <i name="e_0_energy">    -23.98701823 </i>
   </energy>
  </scstep>
  <scstep>
   <time name="diag">    0.03    0.03</time>
   <time name="diis">    0.11    0.12</time>
   <time name="orth">    0.00    0.00</time>
   <time name="total">    0.25    0.25</time>
   <energy>
    <i name="alphaZ">      0.25180034 </i>
    <i name="ewald">    130.70530780 </i>
    <i name="hartreedc">   -286.07477798 </i>
    <i name="XCdc">     24.90503186 </i>
    <i name="pawpsdc">    489.07597539 </i>
    <i name="pawaedc">   -489.87623989 </i>
    <i name="eentropy">     -0.00000000 </i>
    <i name="bandstr">    -90.01586980 </i>
    <i name="atom">    197.04175453 </i>
    <i name="e_fr_energy">    -23.98701775 </i>
    <i name="e_wo_entrp">    -23.98701775 </i>
    <i name="e_0_energy">    -23.98701775 </i>
   </energy>
  </scstep>
  <structure>
   <crystal>
    <varray name="basis" >
     <v>       9.71924470       0.00000000       0.00000000 </v>
     <v>       0.10450817      10.20496356       0.00000000 </v>
     <v>      -0.21763387      -0.20975544       9.69984779 </v>
    </varray>
    <i name="volume">    962.07492178 </i>
    <varray name="rec_basis" >
     <v>       0.10288865      -0.00105367       0.00228571 </v>
     <v>       0.00000000       0.09799153       0.00211903 </v>
     <v>       0.00000000       0.00000000       0.10309440 </v>
    </varray>
   </crystal>
   <varray name="positions" >
    <v>       0.53805794       0.40677884       0.36035799 </v>
    <v>       0.39443450       0.48030312       0.43869779 </v>
    <v>       0.55219060       0.56497224       0.44200442 </v>
    <v>       0.52785542       0.41707719       0.53908614 </v>
    <v>       0.50332475       0.46727700       0.44527541 </v>
   </varray>
  </structure>
  <varray name="forces" >
   <v>       0.17818053      -0.30028916      -0.60588449 </v>
   <v>      -1.10103519       0.12937450      -0.17870293 </v>
   <v>      -0.07439338      -0.44012157       0.14814802 </v>
   <v>       0.30390174      -0.16424767       0.72113546 </v>
   <v>       0.69239693       0.77475977      -0.08454053 </v>
  </varray>
  <varray name="stress" >
   <v>       1.41788527      -0.80655366       0.33372800 </v>
   <v>      -0.80655366      -0.89774120       0.17144607 </v>
   <v>       0.33372800       0.17144607       1.26907728 </v>
  </varray>
  <energy>
   <i name="e_fr_energy">    -23.98701775 </i>
   <i name="e_wo_entrp">    -23.98701775 </i>
   <i name="e_0_energy">     -0.00000000 </i>
   <i name="kinetic">      0.00835361 </i>
   <i name="lattice kinetic">      0.00000000 </i>
   <i name="nosepot">      0.00000000 </i>
   <i name="nosekinetic">      0.00000000 </i>
   <i name="total">    -23.97866413 </i>
  </energy>
  <time name="totalsc">    2.07    2.10</time>
 </calculation>
 <calculation>
  <scstep>
   <time name="dav">    0.12    0.12</time>
   <time name="total">    0.24    0.24</time>
   <energy>
    <i name="alphaZ">      0.25180034 </i>
    <i name="ewald">    130.04046431 </i>
    <i name="hartreedc">   -285.50176452 </i>
    <i name="XCdc">     24.87448794 </i>
    <i name="pawpsdc">    484.71710023 </i>
    <i name="pawaedc">   -485.51482131 </i>
    <i name="eentropy">     -0.00000000 </i>
    <i name="bandstr">    -89.90840517 </i>
    <i name="atom">    197.04175453 </i>
    <i name="e_fr_energy">    -23.99938365 </i>
    <i name="e_wo_entrp">    -23.99938365 </i>
    <i name="e_0_energy">    -23.99938365 </i>
   </energy>
  </scstep>
  <scstep>
   <time name="diag">    0.03    0.03</time>
   <time name="diis">    0.12    0.12</time>
   <time name="orth">    0.00    0.00</time>
   <time name="total">    0.27    0.27</time>
   <energy>
    <i name="e_fr_energy">    -23.99941577 </i>
    <i name="e_wo_entrp">    -23.99941577 </i>
    <i name="e_0_energy">    -23.99941577 </i>
   </energy>
  </scstep>
  <scstep>
   <time name="diag">    0.03    0.03</time>
   <time name="diis">    0.12    0.12</time>
   <time name="orth">    0.00    0.00</time>
   <time name="total">    0.27    0.27</time>
   <energy>
    <i name="e_fr_energy">    -23.99941865 </i>
    <i name="e_wo_entrp">    -23.99941865 </i>
    <i name="e_0_energy">    -23.99941865 </i>
   </energy>
  </scstep>
  <scstep>
   <time name="diag">    0.03    0.03</time>
   <time name="diis">    0.09    0.09</time>
   <time name="orth">    0.00    0.00</time>
   <time name="total">    0.23    0.23</time>
   <energy>
    <i name="alphaZ">      0.25180034 </i>
    <i name="ewald">    130.04046431 </i>
    <i name="hartreedc">   -285.50956651 </i>
    <i name="XCdc">     24.87481970 </i>
    <i name="pawpsdc">    484.68357867 </i>
    <i name="pawaedc">   -485.48144217 </i>
    <i name="eentropy">     -0.00000000 </i>
    <i name="bandstr">    -89.90082746 </i>
    <i name="atom">    197.04175453 </i>
    <i name="e_fr_energy">    -23.99941859 </i>
    <i name="e_wo_entrp">    -23.99941859 </i>
    <i name="e_0_energy">    -23.99941859 </i>
   </energy>
  </scstep>
  <structure>
   <crystal>
    <varray name="basis" >
     <v>       9.71924470       0.00000000       0.00000000 </v>
     <v>       0.10450817      10.20496356       0.00000000 </v>
     <v>      -0.21763387      -0.20975544       9.69984779 </v>
    </varray>
    <i name="volume">    962.07492178 </i>
    <varray name="rec_basis" >
     <v>       0.10288865      -0.00105367       0.00228571 </v>
     <v>       0.00000000       0.09799153       0.00211903 </v>
     <v>       0.00000000       0.00000000       0.10309440 </v>
    </varray>
   </crystal>
   <varray name="positions" >
    <v>       0.53814672       0.40662271       0.36004396 </v>
    <v>       0.39385482       0.48036624       0.43860559 </v>
    <v>       0.55215410       0.56475646       0.44207953 </v>
    <v>       0.52802003       0.41699976       0.53946132 </v>
    <v>       0.50335495       0.46730916       0.44527175 </v>
   </varray>
  </structure>
  <varray name="forces" >
   <v>       0.13773373      -0.23581778      -0.50551753 </v>
   <v>      -0.88078279       0.09925891      -0.15957208 </v>
   <v>      -0.04554336      -0.36797533       0.14055266 </v>
   <v>       0.26689834      -0.10448821       0.59664369 </v>
   <v>       0.52172681       0.60955263      -0.07195843 </v>
  </varray>
  <varray name="stress" >
   <v>       1.02501965      -0.64044273       0.31063947 </v>
   <v>      -0.64044273      -0.90726332       0.17274487 </v>
   <v>       0.31063946       0.17274487       0.94480889 </v>
  </varray>
  <energy>
   <i name="e_fr_energy">    -23.99941859 </i>
   <i name="e_wo_entrp">    -23.99941859 </i>
   <i name="e_0_energy">     -0.00000000 </i>
   <i name="kinetic">      0.02049083 </i>
   <i name="lattice kinetic">      0.00000000 </i>
   <i name="nosepot">      0.00000000 </i>
   <i name="nosekinetic">      0.00000000 </i>
   <i name="total">    -23.97892776 </i>
  </energy>
  <time name="totalsc">    1.47    1.48</time>
 </calculation>
 <calculation>
  <scstep>
   <time name="dav">    0.12    0.12</time>
   <time name="total">    0.24    0.24</time>
   <energy>
    <i name="alphaZ">      0.25180034 </i>
    <i name="ewald">    129.13288663 </i>
    <i name="hartreedc">   -284.73968149 </i>
    <i name="XCdc">     24.83368600 </i>
    <i name="pawpsdc">    478.61579903 </i>
    <i name="pawaedc">   -479.41054377 </i>
    <i name="eentropy">     -0.00000000 </i>
    <i name="bandstr">    -89.73815432 </i>
    <i name="atom">    197.04175453 </i>
    <i name="e_fr_energy">    -24.01245304 </i>
    <i name="e_wo_entrp">    -24.01245304 </i>
    <i name="e_0_energy">    -24.01245304 </i>
   </energy>
  </scstep>
  <scstep>
   <time name="diag">    0.03    0.03</time>
   <time name="diis">    0.12    0.12</time>
   <time name="orth">    0.00    0.00</time>
   <time name="total">    0.27    0.27</time>
   <energy>
    <i name="e_fr_energy">    -24.01245249 </i>
    <i name="e_wo_entrp">    -24.01245249 </i>
    <i name="e_0_energy">    -24.01245249 </i>
   </energy>
  </scstep>
  <scstep>
   <time name="diag">    0.03    0.03</time>
   <time name="diis">    0.12    0.12</time>
   <time name="orth">    0.00    0.00</time>
   <time name="total">    0.27    0.27</time>
   <energy>
    <i name="e_fr_energy">    -24.01245336 </i>
    <i name="e_wo_entrp">    -24.01245336 </i>
    <i name="e_0_energy">    -24.01245336 </i>
   </energy>
  </scstep>
  <scstep>
   <time name="diag">    0.03    0.03</time>
   <time name="diis">    0.09    0.10</time>
   <time name="orth">    0.00    0.00</time>
   <time name="total">    0.23    0.23</time>
   <energy>
    <i name="alphaZ">      0.25180034 </i>
    <i name="ewald">    129.13288663 </i>
    <i name="hartreedc">   -284.72100039 </i>
    <i name="XCdc">     24.83291701 </i>
    <i name="pawpsdc">    478.90142631 </i>
    <i name="pawaedc">   -479.69587764 </i>
    <i name="eentropy">     -0.00000000 </i>
    <i name="bandstr">    -89.75636052 </i>
    <i name="atom">    197.04175453 </i>
    <i name="e_fr_energy">    -24.01245374 </i>
    <i name="e_wo_entrp">    -24.01245374 </i>
    <i name="e_0_energy">    -24.01245374 </i>
   </energy>
  </scstep>
  <structure>
   <crystal>
    <varray name="basis" >
     <v>       9.71924470       0.00000000       0.00000000 </v>
     <v>       0.10450817      10.20496356       0.00000000 </v>
     <v>      -0.21763387      -0.20975544       9.69984779 </v>
    </varray>
    <i name="volume">    962.07492178 </i>
    <varray name="rec_basis" >
     <v>       0.10288865      -0.00105367       0.00228571 </v>
     <v>       0.00000000       0.09799153       0.00211903 </v>
     <v>       0.00000000       0.00000000       0.10309440 </v>
    </varray>
   </crystal>
   <varray name="positions" >
    <v>       0.53826750       0.40640826       0.35960421 </v>
    <v>       0.39305542       0.48045199       0.43847370 </v>
    <v>       0.55210802       0.56445442       0.44218959 </v>
    <v>       0.52825444       0.41690067       0.53998487 </v>
    <v>       0.50339577       0.46735327       0.44526659 </v>
   </varray>
  </structure>
  <varray name="forces" >
   <v>       0.08227205      -0.14750041      -0.36712106 </v>
   <v>      -0.58661268       0.05912301      -0.13323563 </v>
   <v>      -0.00592495      -0.26781661       0.12973759 </v>
   <v>       0.21561417      -0.02400524       0.42617295 </v>
   <v>       0.29344113       0.37904315      -0.05527213 </v>
  </varray>
  <varray name="stress" >
   <v>       0.51038496      -0.41090579       0.27804943 </v>
   <v>      -0.41090578      -0.89742311       0.17306453 </v>
   <v>       0.27804943       0.17306454       0.51331731 </v>
  </varray>
  <energy>
   <i name="e_fr_energy">    -24.01245374 </i>
   <i name="e_wo_entrp">    -24.01245374 </i>
   <i name="e_0_energy">     -0.00000000 </i>
   <i name="kinetic">      0.03326709 </i>
   <i name="lattice kinetic">      0.00000000 </i>
   <i name="nosepot">      0.00000000 </i>
   <i name="nosekinetic">      0.00000000 </i>
   <i name="total">    -23.97918665 </i>
  </energy>
  <time name="totalsc">    1.48    1.49</time>
 </calculation>
 <calculation>
  <scstep>
   <time name="dav">    0.12    0.12</time>
   <time name="total">    0.25    0.25</time>
   <energy>
    <i name="alphaZ">      0.25180034 </i>
    <i name="ewald">    128.07317885 </i>
    <i name="hartreedc">   -283.78845245 </i>
    <i name="XCdc">     24.78369960 </i>
    <i name="pawpsdc">    472.64507480 </i>
    <i name="pawaedc">   -473.43553037 </i>
    <i name="eentropy">     -0.00000000 </i>
    <i name="bandstr">    -89.59342395 </i>
    <i name="atom">    197.04175453 </i>
    <i name="e_fr_energy">    -24.02189865 </i>
    <i name="e_wo_entrp">    -24.02189865 </i>
    <i name="e_0_energy">    -24.02189865 </i>
   </energy>
  </scstep>
  <scstep>
   <time name="diag">    0.03    0.03</time>
   <time name="diis">    0.12    0.12</time>
   <time name="orth">    0.00    0.00</time>
   <time name="total">    0.27    0.28</time>
   <energy>
    <i name="e_fr_energy">    -24.02190233 </i>
    <i name="e_wo_entrp">    -24.02190232 </i>
    <i name="e_0_energy">    -24.02190233 </i>
   </energy>
  </scstep>
  <scstep>
   <time name="diag">    0.03    0.03</time>
   <time name="diis">    0.10    0.10</time>
   <time name="orth">    0.00    0.00</time>
   <time name="total">    0.25    0.25</time>
   <energy>
    <i name="e_fr_energy">    -24.02190556 </i>
    <i name="e_wo_entrp">    -24.02190556 </i>
    <i name="e_0_energy">    -24.02190556 </i>
   </energy>
  </scstep>
  <scstep>
   <time name="diag">    0.03    0.03</time>
   <time name="diis">    0.10    0.10</time>
   <time name="orth">    0.00    0.00</time>
   <time name="total">    0.25    0.26</time>
   <energy>
    <i name="e_fr_energy">    -24.02190912 </i>
    <i name="e_wo_entrp">    -24.02190912 </i>
    <i name="e_0_energy">    -24.02190912 </i>
   </energy>
  </scstep>
  <scstep>
   <time name="diag">    0.03    0.03</time>
   <time name="diis">    0.10    0.10</time>
   <time name="orth">    0.00    0.00</time>
   <time name="total">    0.25    0.25</time>
   <energy>
    <i name="e_fr_energy">    -24.02191141 </i>
    <i name="e_wo_entrp">    -24.02191141 </i>
    <i name="e_0_energy">    -24.02191141 </i>
   </energy>
  </scstep>
  <scstep>
   <time name="diag">    0.03    0.03</time>
   <time name="diis">    0.09    0.10</time>
   <time name="orth">    0.00    0.00</time>
   <time name="total">    0.25    0.25</time>
   <energy>
    <i name="e_fr_energy">    -24.02191450 </i>
    <i name="e_wo_entrp">    -24.02191450 </i>
    <i name="e_0_energy">    -24.02191450 </i>
   </energy>
  </scstep>
  <scstep>
   <time name="diag">    0.03    0.03</time>
   <time name="diis">    0.08    0.08</time>
   <time name="orth">    0.00    0.00</time>
   <time name="total">    0.22    0.22</time>
   <energy>
    <i name="alphaZ">      0.25180034 </i>
    <i name="ewald">    128.07317885 </i>
    <i name="hartreedc">   -283.79895008 </i>
    <i name="XCdc">     24.78401176 </i>
    <i name="pawpsdc">    472.36281618 </i>
    <i name="pawaedc">   -473.15344238 </i>
    <i name="eentropy">     -0.00000000 </i>
    <i name="bandstr">    -89.58308432 </i>
    <i name="atom">    197.04175453 </i>
    <i name="e_fr_energy">    -24.02191511 </i>
    <i name="e_wo_entrp">    -24.02191511 </i>
    <i name="e_0_energy">    -24.02191511 </i>
   </energy>
  </scstep>
  <structure>
   <crystal>
    <varray name="basis" >
     <v>       9.71924470       0.00000000       0.00000000 </v>
     <v>       0.10450817      10.20496356       0.00000000 </v>
     <v>      -0.21763387      -0.20975544       9.69984779 </v>
    </varray>
    <i name="volume">    962.07492178 </i>
    <varray name="rec_basis" >
     <v>       0.10288865      -0.00105367       0.00228571 </v>
     <v>       0.00000000       0.09799153       0.00211903 </v>
     <v>       0.00000000       0.00000000       0.10309440 </v>
    </varray>
   </crystal>
   <varray name="positions" >
    <v>       0.53840706       0.40615708       0.35907316 </v>
    <v>       0.39210957       0.48055105       0.43830867 </v>
    <v>       0.55206188       0.56408975       0.44233191 </v>
    <v>       0.52854478       0.41679810       0.54061439 </v>
    <v>       0.50344257       0.46740483       0.44526028 </v>
   </varray>
  </structure>
  <varray name="forces" >
   <v>       0.01928985      -0.04570616      -0.20660686 </v>
   <v>      -0.25609166       0.01517799      -0.10231267 </v>
   <v>       0.04275636      -0.14409060       0.11602495 </v>
   <v>       0.15579275       0.06663416       0.22973227 </v>
   <v>       0.03818777       0.10818070      -0.03675392 </v>
  </varray>
  <varray name="stress" >
   <v>      -0.08281825      -0.14388013       0.23776169 </v>
   <v>      -0.14388013      -0.88318896       0.17036983 </v>
   <v>       0.23776169       0.17036983       0.00113995 </v>
  </varray>
  <energy>
   <i name="e_fr_energy">    -24.02191511 </i>
   <i name="e_wo_entrp">    -24.02191511 </i>
   <i name="e_0_energy">     -0.00000000 </i>
   <i name="kinetic">      0.04256251 </i>
   <i name="lattice kinetic">      0.00000000 </i>
   <i name="nosepot">      0.00000000 </i>
   <i name="nosekinetic">      0.00000000 </i>
   <i name="total">    -23.97935260 </i>
  </energy>
  <time name="totalsc">    2.21    2.23</time>
 </calculation>
 <calculation>
  <scstep>
   <time name="dav">    0.12    0.12</time>
   <time name="total">    0.24    0.24</time>
   <energy>
    <i name="alphaZ">      0.25180034 </i>
    <i name="ewald">    126.95720879 </i>
    <i name="hartreedc">   -282.82653941 </i>
    <i name="XCdc">     24.73245181 </i>
    <i name="pawpsdc">    465.67556955 </i>
    <i name="pawaedc">   -466.46238595 </i>
    <i name="eentropy">     -0.00000000 </i>
    <i name="bandstr">    -89.39493570 </i>
    <i name="atom">    197.04175453 </i>
    <i name="e_fr_energy">    -24.02507602 </i>
    <i name="e_wo_entrp">    -24.02507602 </i>
    <i name="e_0_energy">    -24.02507602 </i>
   </energy>
  </scstep>
  <scstep>
   <time name="diag">    0.03    0.03</time>
   <time name="diis">    0.12    0.12</time>
   <time name="orth">    0.00    0.00</time>
   <time name="total">    0.28    0.28</time>
   <energy>
    <i name="e_fr_energy">    -24.02507865 </i>
    <i name="e_wo_entrp">    -24.02507865 </i>
    <i name="e_0_energy">    -24.02507865 </i>
   </energy>
  </scstep>
  <scstep>
   <time name="diag">    0.03    0.03</time>
   <time name="diis">    0.10    0.10</time>
   <time name="orth">    0.00    0.00</time>
   <time name="total">    0.25    0.25</time>
   <energy>
    <i name="e_fr_energy">    -24.02508078 </i>
    <i name="e_wo_entrp">    -24.02508078 </i>
    <i name="e_0_energy">    -24.02508078 </i>
   </energy>
  </scstep>
  <scstep>
   <time name="diag">    0.03    0.03</time>
   <time name="diis">    0.09    0.10</time>
   <time name="orth">    0.00    0.00</time>
   <time name="total">    0.25    0.25</time>
   <energy>
    <i name="e_fr_energy">    -24.02508300 </i>
    <i name="e_wo_entrp">    -24.02508300 </i>
    <i name="e_0_energy">    -24.02508300 </i>
   </energy>
  </scstep>
  <scstep>
   <time name="diag">    0.03    0.03</time>
   <time name="diis">    0.10    0.10</time>
   <time name="orth">    0.00    0.00</time>
   <time name="total">    0.25    0.25</time>
   <energy>
    <i name="e_fr_energy">    -24.02508467 </i>
    <i name="e_wo_entrp">    -24.02508467 </i>
    <i name="e_0_energy">    -24.02508467 </i>
   </energy>
  </scstep>
  <scstep>
   <time name="diag">    0.03    0.03</time>
   <time name="diis">    0.08    0.08</time>
   <time name="orth">    0.00    0.00</time>
   <time name="total">    0.22    0.22</time>
   <energy>
    <i name="alphaZ">      0.25180034 </i>
    <i name="ewald">    126.95720879 </i>
    <i name="hartreedc">   -282.82143175 </i>
    <i name="XCdc">     24.73229976 </i>
    <i name="pawpsdc">    465.60891890 </i>
    <i name="pawaedc">   -466.39559911 </i>
    <i name="eentropy">     -0.00000000 </i>
    <i name="bandstr">    -89.40003645 </i>
    <i name="atom">    197.04175453 </i>
    <i name="e_fr_energy">    -24.02508499 </i>
    <i name="e_wo_entrp">    -24.02508499 </i>
    <i name="e_0_energy">    -24.02508499 </i>
   </energy>
  </scstep>
  <structure>
   <crystal>
    <varray name="basis" >
     <v>       9.71924470       0.00000000       0.00000000 </v>
     <v>       0.10450817      10.20496356       0.00000000 </v>
     <v>      -0.21763387      -0.20975544       9.69984779 </v>
    </varray>
    <i name="volume">    962.07492178 </i>
    <varray name="rec_basis" >
     <v>       0.10288865      -0.00105367       0.00228571 </v>
     <v>       0.00000000       0.09799153       0.00211903 </v>
     <v>       0.00000000       0.00000000       0.10309440 </v>
    </varray>
   </crystal>
   <varray name="positions" >
    <v>       0.53855039       0.40589404       0.35849073 </v>
    <v>       0.39109955       0.48065318       0.43811820 </v>
    <v>       0.55202735       0.56369161       0.44250309 </v>
    <v>       0.52887489       0.41671246       0.54130104 </v>
    <v>       0.50349012       0.46745851       0.44525321 </v>
   </varray>
  </structure>
  <varray name="forces" >
   <v>      -0.04540885       0.05965226      -0.03809560 </v>
   <v>       0.07697738      -0.02826831      -0.06918340 </v>
   <v>       0.09531633      -0.00835267       0.10015553 </v>
   <v>       0.09200398       0.15739177       0.02535962 </v>
   <v>      -0.21929601      -0.18056412      -0.01819882 </v>
  </varray>
  <varray name="stress" >
   <v>      -0.69229572       0.13629931       0.19165137 </v>
   <v>       0.13629931      -0.85603574       0.16325096 </v>
   <v>       0.19165137       0.16325096      -0.54182114 </v>
  </varray>
  <energy>
   <i name="e_fr_energy">    -24.02508499 </i>
   <i name="e_wo_entrp">    -24.02508499 </i>
   <i name="e_0_energy">     -0.00000000 </i>
   <i name="kinetic">      0.04570957 </i>
   <i name="lattice kinetic">      0.00000000 </i>
   <i name="nosepot">      0.00000000 </i>
   <i name="nosekinetic">      0.00000000 </i>
   <i name="total">    -23.97937542 </i>
  </energy>
  <time name="totalsc">    1.95    1.97</time>
 </calculation>
 <calculation>
  <scstep>
   <time name="dav">    0.12    0.12</time>
   <time name="total">    0.24    0.24</time>
   <energy>
    <i name="alphaZ">      0.25180034 </i>
    <i name="ewald">    125.87517451 </i>
    <i name="hartreedc">   -281.86452200 </i>
    <i name="XCdc">     24.68184555 </i>
    <i name="pawpsdc">    459.34091509 </i>
    <i name="pawaedc">   -460.12388106 </i>
    <i name="eentropy">     -0.00000000 </i>
    <i name="bandstr">    -89.22454699 </i>
    <i name="atom">    197.04175453 </i>
    <i name="e_fr_energy">    -24.02146003 </i>
    <i name="e_wo_entrp">    -24.02146003 </i>
    <i name="e_0_energy">    -24.02146003 </i>
   </energy>
  </scstep>
  <scstep>
   <time name="diag">    0.03    0.03</time>
   <time name="diis">    0.12    0.12</time>
   <time name="orth">    0.00    0.00</time>
   <time name="total">    0.27    0.27</time>
   <energy>
    <i name="e_fr_energy">    -24.02146205 </i>
    <i name="e_wo_entrp">    -24.02146205 </i>
    <i name="e_0_energy">    -24.02146205 </i>
   </energy>
  </scstep>
  <scstep>
   <time name="diag">    0.03    0.03</time>
   <time name="diis">    0.09    0.10</time>
   <time name="orth">    0.00    0.00</time>
   <time name="total">    0.24    0.25</time>
   <energy>
    <i name="e_fr_energy">    -24.02146228 </i>
    <i name="e_wo_entrp">    -24.02146228 </i>
    <i name="e_0_energy">    -24.02146228 </i>
   </energy>
  </scstep>
  <scstep>
   <time name="diag">    0.03    0.03</time>
   <time name="diis">    0.09    0.10</time>
   <time name="orth">    0.00    0.00</time>
   <time name="total">    0.23    0.23</time>
   <energy>
    <i name="alphaZ">      0.25180034 </i>
    <i name="ewald">    125.87517451 </i>
    <i name="hartreedc">   -281.86533382 </i>
    <i name="XCdc">     24.68188889 </i>
    <i name="pawpsdc">    459.23744789 </i>
    <i name="pawaedc">   -460.02038639 </i>
    <i name="eentropy">     -0.00000000 </i>
    <i name="bandstr">    -89.22380881 </i>
    <i name="atom">    197.04175453 </i>
    <i name="e_fr_energy">    -24.02146285 </i>
    <i name="e_wo_entrp">    -24.02146285 </i>
    <i name="e_0_energy">    -24.02146285 </i>
   </energy>
  </scstep>
  <structure>
   <crystal>
    <varray name="basis" >
     <v>       9.71924470       0.00000000       0.00000000 </v>
     <v>       0.10450817      10.20496356       0.00000000 </v>
     <v>      -0.21763387      -0.20975544       9.69984779 </v>
    </varray>
    <i name="volume">    962.07492178 </i>
    <varray name="rec_basis" >
     <v>       0.10288865      -0.00105367       0.00228571 </v>
     <v>       0.00000000       0.09799153       0.00211903 </v>
     <v>       0.00000000       0.00000000       0.10309440 </v>
    </varray>
   </crystal>
   <varray name="positions" >
    <v>       0.53868210       0.40564491       0.35789883 </v>
    <v>       0.39010834       0.48074827       0.43791052 </v>
    <v>       0.55201706       0.56329202       0.44269916 </v>
    <v>       0.52922758       0.41666415       0.54199400 </v>
    <v>       0.50353317       0.46750863       0.44524576 </v>
   </varray>
  </structure>
  <varray name="forces" >
   <v>      -0.10593602       0.15988967       0.12511831 </v>
   <v>       0.38573287      -0.06719056      -0.03597369 </v>
   <v>       0.14665781       0.12793554       0.08271276 </v>
   <v>       0.02891864       0.23985059      -0.17059675 </v>
   <v>      -0.45563210      -0.46032539      -0.00154233 </v>
  </varray>
  <varray name="stress" >
   <v>      -1.26645973       0.40483813       0.14186836 </v>
   <v>       0.40483813      -0.81673841       0.15104728 </v>
   <v>       0.14186836       0.15104728      -1.07057826 </v>
  </varray>
  <energy>
   <i name="e_fr_energy">    -24.02146285 </i>
   <i name="e_wo_entrp">    -24.02146285 </i>
   <i name="e_0_energy">     -0.00000000 </i>
   <i name="kinetic">      0.04220132 </i>
   <i name="lattice kinetic">      0.00000000 </i>
   <i name="nosepot">      0.00000000 </i>
   <i name="nosekinetic">      0.00000000 </i>
   <i name="total">    -23.97926154 </i>
  </energy>
  <time name="totalsc">    1.44    1.47</time>
 </calculation>
 <calculation>
  <scstep>
   <time name="dav">    0.14    0.14</time>
   <time name="total">    0.26    0.26</time>
   <energy>
    <i name="alphaZ">      0.25180034 </i>
    <i name="ewald">    124.90446496 </i>
    <i name="hartreedc">   -281.00894277 </i>
    <i name="XCdc">     24.63682622 </i>
    <i name="pawpsdc">    453.81871646 </i>
    <i name="pawaedc">   -454.59849528 </i>
    <i name="eentropy">     -0.00000000 </i>
    <i name="bandstr">    -89.05880412 </i>
    <i name="atom">    197.04175453 </i>
    <i name="e_fr_energy">    -24.01267966 </i>
    <i name="e_wo_entrp">    -24.01267966 </i>
    <i name="e_0_energy">    -24.01267966 </i>
   </energy>
  </scstep>
  <scstep>
   <time name="diag">    0.03    0.03</time>
   <time name="diis">    0.12    0.12</time>
   <time name="orth">    0.00    0.00</time>
   <time name="total">    0.27    0.27</time>
   <energy>
    <i name="e_fr_energy">    -24.01268274 </i>
    <i name="e_wo_entrp">    -24.01268274 </i>
    <i name="e_0_energy">    -24.01268274 </i>
   </energy>
  </scstep>
  <scstep>
   <time name="diag">    0.03    0.03</time>
   <time name="diis">    0.09    0.10</time>
   <time name="orth">    0.00    0.00</time>
   <time name="total">    0.24    0.25</time>
   <energy>
    <i name="e_fr_energy">    -24.01268296 </i>
    <i name="e_wo_entrp">    -24.01268296 </i>
    <i name="e_0_energy">    -24.01268296 </i>
   </energy>
  </scstep>
  <scstep>
   <time name="diag">    0.03    0.03</time>
   <time name="diis">    0.09    0.10</time>
   <time name="orth">    0.00    0.00</time>
   <time name="total">    0.25    0.25</time>
   <energy>
    <i name="e_fr_energy">    -24.01268493 </i>
    <i name="e_wo_entrp">    -24.01268493 </i>
    <i name="e_0_energy">    -24.01268493 </i>
   </energy>
  </scstep>
  <scstep>
   <time name="diag">    0.03    0.03</time>
   <time name="diis">    0.10    0.10</time>
   <time name="orth">    0.00    0.00</time>
   <time name="total">    0.23    0.23</time>
   <energy>
    <i name="alphaZ">      0.25180034 </i>
    <i name="ewald">    124.90446496 </i>
    <i name="hartreedc">   -281.00094040 </i>
    <i name="XCdc">     24.63648747 </i>
    <i name="pawpsdc">    453.67043626 </i>
    <i name="pawaedc">   -454.45007228 </i>
    <i name="eentropy">     -0.00000000 </i>
    <i name="bandstr">    -89.06661585 </i>
    <i name="atom">    197.04175453 </i>
    <i name="e_fr_energy">    -24.01268497 </i>
    <i name="e_wo_entrp">    -24.01268497 </i>
    <i name="e_0_energy">    -24.01268497 </i>
   </energy>
  </scstep>
  <structure>
   <crystal>
    <varray name="basis" >
     <v>       9.71924470       0.00000000       0.00000000 </v>
     <v>       0.10450817      10.20496356       0.00000000 </v>
     <v>      -0.21763387      -0.20975544       9.69984779 </v>
    </varray>
    <i name="volume">    962.07492178 </i>
    <varray name="rec_basis" >
     <v>       0.10288865      -0.00105367       0.00228571 </v>
     <v>       0.00000000       0.09799153       0.00211903 </v>
     <v>       0.00000000       0.00000000       0.10309440 </v>
    </varray>
   </crystal>
   <varray name="positions" >
    <v>       0.53878780       0.40543420       0.35733805 </v>
    <v>       0.38921284       0.48082729       0.43769390 </v>
    <v>       0.55204331       0.56292308       0.44291582 </v>
    <v>       0.52958590       0.41667166       0.54264454 </v>
    <v>       0.50356691       0.46754968       0.44523829 </v>
   </varray>
  </structure>
  <varray name="forces" >
   <v>      -0.15750587       0.24726321       0.27146561 </v>
   <v>       0.64977468      -0.09897843      -0.00432175 </v>
   <v>       0.19071922       0.25142476       0.06439581 </v>
   <v>      -0.02966392       0.30688329      -0.34419856 </v>
   <v>      -0.65380412      -0.70644060       0.01241698 </v>
  </varray>
  <varray name="stress" >
   <v>      -1.76693171       0.63913636       0.09007671 </v>
   <v>       0.63913636      -0.77112469       0.13371065 </v>
   <v>       0.09007671       0.13371065      -1.54709365 </v>
  </varray>
  <energy>
   <i name="e_fr_energy">    -24.01268497 </i>
   <i name="e_wo_entrp">    -24.01268497 </i>
   <i name="e_0_energy">     -0.00000000 </i>
   <i name="kinetic">      0.03362651 </i>
   <i name="lattice kinetic">      0.00000000 </i>
   <i name="nosepot">      0.00000000 </i>
   <i name="nosekinetic">      0.00000000 </i>
   <i name="total">    -23.97905846 </i>
  </energy>
  <time name="totalsc">    1.72    1.74</time>
 </calculation>
 <calculation>
  <scstep>
   <time name="dav">    0.12    0.12</time>
   <time name="total">    0.24    0.24</time>
   <energy>
    <i name="alphaZ">      0.25180034 </i>
    <i name="ewald">    124.10645877 </i>
    <i name="hartreedc">   -280.28614114 </i>
    <i name="XCdc">     24.59901599 </i>
    <i name="pawpsdc">    449.38111877 </i>
    <i name="pawaedc">   -450.15812777 </i>
    <i name="eentropy">     -0.00000000 </i>
    <i name="bandstr">    -88.93769847 </i>
    <i name="atom">    197.04175453 </i>
    <i name="e_fr_energy">    -24.00181897 </i>
    <i name="e_wo_entrp">    -24.00181897 </i>
    <i name="e_0_energy">    -24.00181897 </i>
   </energy>
  </scstep>
  <scstep>
   <time name="diag">    0.03    0.03</time>
   <time name="diis">    0.12    0.12</time>
   <time name="orth">    0.00    0.00</time>
   <time name="total">    0.26    0.27</time>
   <energy>
    <i name="e_fr_energy">    -24.00182209 </i>
    <i name="e_wo_entrp">    -24.00182209 </i>
    <i name="e_0_energy">    -24.00182209 </i>
   </energy>
  </scstep>
  <scstep>
   <time name="diag">    0.03    0.03</time>
   <time name="diis">    0.09    0.10</time>
   <time name="orth">    0.00    0.00</time>
   <time name="total">    0.24    0.25</time>
   <energy>
    <i name="e_fr_energy">    -24.00182279 </i>
    <i name="e_wo_entrp">    -24.00182279 </i>
    <i name="e_0_energy">    -24.00182279 </i>
   </energy>
  </scstep>
  <scstep>
   <time name="diag">    0.03    0.03</time>
   <time name="diis">    0.09    0.10</time>
   <time name="orth">    0.00    0.00</time>
   <time name="total">    0.24    0.25</time>
   <energy>
    <i name="e_fr_energy">    -24.00182496 </i>
    <i name="e_wo_entrp">    -24.00182496 </i>
    <i name="e_0_energy">    -24.00182496 </i>
   </energy>
  </scstep>
  <scstep>
   <time name="diag">    0.03    0.03</time>
   <time name="diis">    0.09    0.09</time>
   <time name="orth">    0.00    0.00</time>
   <time name="total">    0.22    0.23</time>
   <energy>
    <i name="alphaZ">      0.25180034 </i>
    <i name="ewald">    124.10645877 </i>
    <i name="hartreedc">   -280.28841469 </i>
    <i name="XCdc">     24.59914439 </i>
    <i name="pawpsdc">    449.15415384 </i>
    <i name="pawaedc">   -449.93115210 </i>
    <i name="eentropy">     -0.00000000 </i>
    <i name="bandstr">    -88.93557066 </i>
    <i name="atom">    197.04175453 </i>
    <i name="e_fr_energy">    -24.00182558 </i>
    <i name="e_wo_entrp">    -24.00182558 </i>
    <i name="e_0_energy">    -24.00182558 </i>
   </energy>
  </scstep>
  <structure>
   <crystal>
    <varray name="basis" >
     <v>       9.71924470       0.00000000       0.00000000 </v>
     <v>       0.10450817      10.20496356       0.00000000 </v>
     <v>      -0.21763387      -0.20975544       9.69984779 </v>
    </varray>
    <i name="volume">    962.07492178 </i>
    <varray name="rec_basis" >
     <v>       0.10288865      -0.00105367       0.00228571 </v>
     <v>       0.00000000       0.09799153       0.00211903 </v>
     <v>       0.00000000       0.00000000       0.10309440 </v>
    </varray>
   </crystal>
   <varray name="positions" >
    <v>       0.53885529       0.40528333       0.35684478 </v>
    <v>       0.38847883       0.48088289       0.43747621 </v>
    <v>       0.55211661       0.56261390       0.44314848 </v>
    <v>       0.52993419       0.41674995       0.54320948 </v>
    <v>       0.50358730       0.46757684       0.44523107 </v>
   </varray>
  </structure>
  <varray name="forces" >
   <v>      -0.19642289       0.31572757       0.39168814 </v>
   <v>       0.85568367      -0.12190322       0.02447300 </v>
   <v>       0.22190703       0.34985092       0.04567103 </v>
   <v>      -0.08068524       0.35341197      -0.48491685 </v>
   <v>      -0.80101392      -0.89700566       0.02269942 </v>
  </varray>
  <varray name="stress" >
   <v>      -2.16965440       0.82012292       0.03804748 </v>
   <v>       0.82012292      -0.73075828       0.11161419 </v>
   <v>       0.03804748       0.11161419      -1.94374785 </v>
  </varray>
  <energy>
   <i name="e_fr_energy">    -24.00182558 </i>
   <i name="e_wo_entrp">    -24.00182558 </i>
   <i name="e_0_energy">     -0.00000000 </i>
   <i name="kinetic">      0.02299113 </i>
   <i name="lattice kinetic">      0.00000000 </i>
   <i name="nosepot">      0.00000000 </i>
   <i name="nosekinetic">      0.00000000 </i>
   <i name="total">    -23.97883445 </i>
  </energy>
  <time name="totalsc">    1.67    1.71</time>
 </calculation>
 <calculation>
  <scstep>
   <time name="dav">    0.12    0.12</time>
   <time name="total">    0.24    0.24</time>
   <energy>
    <i name="alphaZ">      0.25180034 </i>
    <i name="ewald">    123.52629404 </i>
    <i name="hartreedc">   -279.78091111 </i>
    <i name="XCdc">     24.57252637 </i>
    <i name="pawpsdc">    445.96370595 </i>
    <i name="pawaedc">   -446.73900594 </i>
    <i name="eentropy">     -0.00000000 </i>
    <i name="bandstr">    -88.82851946 </i>
    <i name="atom">    197.04175453 </i>
    <i name="e_fr_energy">    -23.99235529 </i>
    <i name="e_wo_entrp">    -23.99235529 </i>
    <i name="e_0_energy">    -23.99235529 </i>
   </energy>
  </scstep>
  <scstep>
   <time name="diag">    0.03    0.03</time>
   <time name="diis">    0.12    0.12</time>
   <time name="orth">    0.00    0.00</time>
   <time name="total">    0.27    0.27</time>
   <energy>
    <i name="e_fr_energy">    -23.99235821 </i>
    <i name="e_wo_entrp">    -23.99235821 </i>
    <i name="e_0_energy">    -23.99235821 </i>
   </energy>
  </scstep>
  <scstep>
   <time name="diag">    0.03    0.03</time>
   <time name="diis">    0.09    0.10</time>
   <time name="orth">    0.00    0.00</time>
   <time name="total">    0.25    0.25</time>
   <energy>
    <i name="e_fr_energy">    -23.99235893 </i>
    <i name="e_wo_entrp">    -23.99235893 </i>
    <i name="e_0_energy">    -23.99235893 </i>
   </energy>
  </scstep>
  <scstep>
   <time name="diag">    0.03    0.03</time>
   <time name="diis">    0.09    0.10</time>
   <time name="orth">    0.00    0.00</time>
   <time name="total">    0.25    0.25</time>
   <energy>
    <i name="e_fr_energy">    -23.99236078 </i>
    <i name="e_wo_entrp">    -23.99236078 </i>
    <i name="e_0_energy">    -23.99236078 </i>
   </energy>
  </scstep>
  <scstep>
   <time name="diag">    0.03    0.03</time>
   <time name="diis">    0.09    0.10</time>
   <time name="orth">    0.00    0.00</time>
   <time name="total">    0.23    0.23</time>
   <energy>
    <i name="alphaZ">      0.25180034 </i>
    <i name="ewald">    123.52629404 </i>
    <i name="hartreedc">   -279.76782683 </i>
    <i name="XCdc">     24.57191854 </i>
    <i name="pawpsdc">    445.94034212 </i>
    <i name="pawaedc">   -446.71543007 </i>
    <i name="eentropy">     -0.00000000 </i>
    <i name="bandstr">    -88.84121434 </i>
    <i name="atom">    197.04175453 </i>
    <i name="e_fr_energy">    -23.99236167 </i>
    <i name="e_wo_entrp">    -23.99236167 </i>
    <i name="e_0_energy">    -23.99236167 </i>
   </energy>
  </scstep>
  <structure>
   <crystal>
    <varray name="basis" >
     <v>       9.71924470       0.00000000       0.00000000 </v>
     <v>       0.10450817      10.20496356       0.00000000 </v>
     <v>      -0.21763387      -0.20975544       9.69984779 </v>
    </varray>
    <i name="volume">    962.07492178 </i>
    <varray name="rec_basis" >
     <v>       0.10288865      -0.00105367       0.00228571 </v>
     <v>       0.00000000       0.09799153       0.00211903 </v>
     <v>       0.00000000       0.00000000       0.10309440 </v>
    </varray>
   </crystal>
   <varray name="positions" >
    <v>       0.53887539       0.40520909       0.35644891 </v>
    <v>       0.38795764       0.48090981       0.43726462 </v>
    <v>       0.55224435       0.56238765       0.44339252 </v>
    <v>       0.53025889       0.41690929       0.54365385 </v>
    <v>       0.50359135       0.46758635       0.44522433 </v>
   </varray>
  </structure>
  <varray name="forces" >
   <v>      -0.22034595       0.36139385       0.47969605 </v>
   <v>       0.99597408      -0.13518093       0.04947086 </v>
   <v>       0.23522866       0.41246124       0.02695201 </v>
   <v>      -0.12200046       0.37651705      -0.58587992 </v>
   <v>      -0.88931087      -1.01505511       0.02935167 </v>
  </varray>
  <varray name="stress" >
   <v>      -2.45451644       0.93358758      -0.01252337 </v>
   <v>       0.93358759      -0.70140550       0.08538906 </v>
   <v>      -0.01252336       0.08538906      -2.23523813 </v>
  </varray>
  <energy>
   <i name="e_fr_energy">    -23.99236167 </i>
   <i name="e_wo_entrp">    -23.99236167 </i>
   <i name="e_0_energy">     -0.00000000 </i>
   <i name="kinetic">      0.01371347 </i>
   <i name="lattice kinetic">      0.00000000 </i>
   <i name="nosepot">      0.00000000 </i>
   <i name="nosekinetic">      0.00000000 </i>
   <i name="total">    -23.97864819 </i>
  </energy>
  <dos>
   <i name="efermi">     -8.16015020 </i>
   <total>
    <array>
     <dimension dim="1">gridpoints</dimension>
     <dimension dim="2">spin</dimension>
     <field>energy</field>
     <field>total</field>
     <field>integrated</field>
     <set>
      <set comment="spin 1">
       <r>   -18.7608     0.0000     0.0000 </r>
       <r>   -18.6892     0.0000     0.0000 </r>
       <r>   -18.6176     0.0000     0.0000 </r>
       <r>   -18.5459     0.0000     0.0000 </r>
       <r>   -18.4743     0.0000     0.0000 </r>
       <r>   -18.4027     0.0000     0.0000 </r>
       <r>   -18.3311     0.0000     0.0000 </r>
       <r>   -18.2594     0.0000     0.0000 </r>
       <r>   -18.1878     0.0000     0.0000 </r>
       <r>   -18.1162     0.0000     0.0000 </r>
       <r>   -18.0446     0.0000     0.0000 </r>
       <r>   -17.9729     0.0000     0.0000 </r>
       <r>   -17.9013     0.0000     0.0000 </r>
       <r>   -17.8297     0.0000     0.0000 </r>
       <r>   -17.7581     0.0000     0.0000 </r>
       <r>   -17.6864     0.0000     0.0000 </r>
       <r>   -17.6148     0.0000     0.0000 </r>
       <r>   -17.5432     0.0000     0.0000 </r>
       <r>   -17.4716     0.0001     0.0000 </r>
       <r>   -17.3999     0.0011     0.0001 </r>
       <r>   -17.3283     0.0100     0.0008 </r>
       <r>   -17.2567     0.0717     0.0060 </r>
       <r>   -17.1851     0.3976     0.0347 </r>
       <r>   -17.1134     1.7091     0.1580 </r>
       <r>   -17.0418     5.6950     0.5688 </r>
       <r>   -16.9702    14.7143     1.6300 </r>
       <r>   -16.8986    29.4860     3.7565 </r>
       <r>   -16.8269    45.8397     7.0619 </r>
       <r>   -16.7553    55.2999    11.0490 </r>
       <r>   -16.6837    51.7798    14.7818 </r>
       <r>   -16.6120    37.6390    17.4947 </r>
       <r>   -16.5404    21.2440    19.0257 </r>
       <r>   -16.4688     9.3115    19.6966 </r>
       <r>   -16.3972     3.1699    19.9250 </r>
       <r>   -16.3255     0.8383    19.9853 </r>
       <r>   -16.2539     0.1722    19.9978 </r>
       <r>   -16.1823     0.0275    19.9997 </r>
       <r>   -16.1107     0.0034    20.0000 </r>
       <r>   -16.0390     0.0003    20.0000 </r>
       <r>   -15.9674     0.0000    20.0000 </r>
       <r>   -15.8958     0.0000    20.0000 </r>
       <r>   -15.8242     0.0000    20.0000 </r>
       <r>   -15.7525     0.0000    20.0000 </r>
       <r>   -15.6809     0.0000    20.0000 </r>
       <r>   -15.6093     0.0000    20.0000 </r>
       <r>   -15.5377     0.0000    20.0000 </r>
       <r>   -15.4660     0.0000    20.0000 </r>
       <r>   -15.3944     0.0000    20.0000 </r>
       <r>   -15.3228     0.0000    20.0000 </r>
       <r>   -15.2512     0.0000    20.0000 </r>
       <r>   -15.1795     0.0000    20.0000 </r>
       <r>   -15.1079     0.0000    20.0000 </r>
       <r>   -15.0363     0.0000    20.0000 </r>
       <r>   -14.9647     0.0000    20.0000 </r>
       <r>   -14.8930     0.0000    20.0000 </r>
       <r>   -14.8214     0.0000    20.0000 </r>
       <r>   -14.7498     0.0000    20.0000 </r>
       <r>   -14.6782     0.0000    20.0000 </r>
       <r>   -14.6065     0.0000    20.0000 </r>
       <r>   -14.5349     0.0000    20.0000 </r>
       <r>   -14.4633     0.0000    20.0000 </r>
       <r>   -14.3917     0.0000    20.0000 </r>
       <r>   -14.3200     0.0000    20.0000 </r>
       <r>   -14.2484     0.0000    20.0000 </r>
       <r>   -14.1768     0.0000    20.0000 </r>
       <r>   -14.1052     0.0000    20.0000 </r>
       <r>   -14.0335     0.0000    20.0000 </r>
       <r>   -13.9619     0.0000    20.0000 </r>
       <r>   -13.8903     0.0000    20.0000 </r>
       <r>   -13.8186     0.0000    20.0000 </r>
       <r>   -13.7470     0.0000    20.0000 </r>
       <r>   -13.6754     0.0000    20.0000 </r>
       <r>   -13.6038     0.0000    20.0000 </r>
       <r>   -13.5321     0.0000    20.0000 </r>
       <r>   -13.4605     0.0000    20.0000 </r>
       <r>   -13.3889     0.0000    20.0000 </r>
       <r>   -13.3173     0.0000    20.0000 </r>
       <r>   -13.2456     0.0000    20.0000 </r>
       <r>   -13.1740     0.0000    20.0000 </r>
       <r>   -13.1024     0.0000    20.0000 </r>
       <r>   -13.0308     0.0000    20.0000 </r>
       <r>   -12.9591     0.0000    20.0000 </r>
       <r>   -12.8875     0.0000    20.0000 </r>
       <r>   -12.8159     0.0000    20.0000 </r>
       <r>   -12.7443     0.0000    20.0000 </r>
       <r>   -12.6726     0.0000    20.0000 </r>
       <r>   -12.6010     0.0000    20.0000 </r>
       <r>   -12.5294     0.0000    20.0000 </r>
       <r>   -12.4578     0.0000    20.0000 </r>
       <r>   -12.3861     0.0000    20.0000 </r>
       <r>   -12.3145     0.0000    20.0000 </r>
       <r>   -12.2429     0.0000    20.0000 </r>
       <r>   -12.1713     0.0000    20.0000 </r>
       <r>   -12.0996     0.0000    20.0000 </r>
       <r>   -12.0280     0.0000    20.0000 </r>
       <r>   -11.9564     0.0000    20.0000 </r>
       <r>   -11.8848     0.0000    20.0000 </r>
       <r>   -11.8131     0.0000    20.0000 </r>
       <r>   -11.7415     0.0000    20.0000 </r>
       <r>   -11.6699     0.0000    20.0000 </r>
       <r>   -11.5983     0.0000    20.0000 </r>
       <r>   -11.5266     0.0000    20.0000 </r>
       <r>   -11.4550     0.0000    20.0000 </r>
       <r>   -11.3834     0.0000    20.0000 </r>
       <r>   -11.3117     0.0000    20.0000 </r>
       <r>   -11.2401     0.0000    20.0000 </r>
       <r>   -11.1685     0.0000    20.0000 </r>
       <r>   -11.0969     0.0000    20.0000 </r>
       <r>   -11.0252     0.0000    20.0000 </r>
       <r>   -10.9536     0.0000    20.0000 </r>
       <r>   -10.8820     0.0000    20.0000 </r>
       <r>   -10.8104     0.0000    20.0000 </r>
       <r>   -10.7387     0.0000    20.0000 </r>
       <r>   -10.6671     0.0000    20.0000 </r>
       <r>   -10.5955     0.0000    20.0000 </r>
       <r>   -10.5239     0.0000    20.0000 </r>
       <r>   -10.4522     0.0000    20.0000 </r>
       <r>   -10.3806     0.0000    20.0000 </r>
       <r>   -10.3090     0.0000    20.0000 </r>
       <r>   -10.2374     0.0000    20.0000 </r>
       <r>   -10.1657     0.0000    20.0000 </r>
       <r>   -10.0941     0.0000    20.0000 </r>
       <r>   -10.0225     0.0002    20.0000 </r>
       <r>    -9.9509     0.0020    20.0002 </r>
       <r>    -9.8792     0.0172    20.0014 </r>
       <r>    -9.8076     0.1158    20.0097 </r>
       <r>    -9.7360     0.6115    20.0538 </r>
       <r>    -9.6644     2.5446    20.2371 </r>
       <r>    -9.5927     8.3684    20.8401 </r>
       <r>    -9.5211    21.8622    22.4159 </r>
       <r>    -9.4495    45.7246    25.7126 </r>
       <r>    -9.3779    77.4731    31.2992 </r>
       <r>    -9.3062   108.1856    39.1004 </r>
       <r>    -9.2346   127.2952    48.2783 </r>
       <r>    -9.1630   129.0364    57.5799 </r>
       <r>    -9.0914   114.1274    65.8058 </r>
       <r>    -9.0197    87.6890    72.1264 </r>
       <r>    -8.9481    57.4131    76.2657 </r>
       <r>    -8.8765    31.2565    78.5200 </r>
       <r>    -8.8049    13.8468    79.5191 </r>
       <r>    -8.7332     4.9132    79.8737 </r>
       <r>    -8.6616     1.3816    79.9735 </r>
       <r>    -8.5900     0.3057    79.9956 </r>
       <r>    -8.5183     0.0530    79.9994 </r>
       <r>    -8.4467     0.0072    79.9999 </r>
       <r>    -8.3751     0.0008    80.0000 </r>
       <r>    -8.3035     0.0001    80.0000 </r>
       <r>    -8.2318     0.0000    80.0000 </r>
       <r>    -8.1602     0.0000    80.0000 </r>
       <r>    -8.0886     0.0000    80.0000 </r>
       <r>    -8.0170     0.0000    80.0000 </r>
       <r>    -7.9453     0.0000    80.0000 </r>
       <r>    -7.8737     0.0000    80.0000 </r>
       <r>    -7.8021     0.0000    80.0000 </r>
       <r>    -7.7305     0.0000    80.0000 </r>
       <r>    -7.6588     0.0000    80.0000 </r>
       <r>    -7.5872     0.0000    80.0000 </r>
       <r>    -7.5156     0.0000    80.0000 </r>
       <r>    -7.4440     0.0000    80.0000 </r>
       <r>    -7.3723     0.0000    80.0000 </r>
       <r>    -7.3007     0.0000    80.0000 </r>
       <r>    -7.2291     0.0000    80.0000 </r>
       <r>    -7.1575     0.0000    80.0000 </r>
       <r>    -7.0858     0.0000    80.0000 </r>
       <r>    -7.0142     0.0000    80.0000 </r>
       <r>    -6.9426     0.0000    80.0000 </r>
       <r>    -6.8710     0.0000    80.0000 </r>
       <r>    -6.7993     0.0000    80.0000 </r>
       <r>    -6.7277     0.0000    80.0000 </r>
       <r>    -6.6561     0.0000    80.0000 </r>
       <r>    -6.5845     0.0000    80.0000 </r>
       <r>    -6.5128     0.0000    80.0000 </r>
       <r>    -6.4412     0.0000    80.0000 </r>
       <r>    -6.3696     0.0000    80.0000 </r>
       <r>    -6.2980     0.0000    80.0000 </r>
       <r>    -6.2263     0.0000    80.0000 </r>
       <r>    -6.1547     0.0000    80.0000 </r>
       <r>    -6.0831     0.0000    80.0000 </r>
       <r>    -6.0114     0.0000    80.0000 </r>
       <r>    -5.9398     0.0000    80.0000 </r>
       <r>    -5.8682     0.0000    80.0000 </r>
       <r>    -5.7966     0.0000    80.0000 </r>
       <r>    -5.7249     0.0000    80.0000 </r>
       <r>    -5.6533     0.0000    80.0000 </r>
       <r>    -5.5817     0.0000    80.0000 </r>
       <r>    -5.5101     0.0000    80.0000 </r>
       <r>    -5.4384     0.0000    80.0000 </r>
       <r>    -5.3668     0.0000    80.0000 </r>
       <r>    -5.2952     0.0000    80.0000 </r>
       <r>    -5.2236     0.0000    80.0000 </r>
       <r>    -5.1519     0.0000    80.0000 </r>
       <r>    -5.0803     0.0000    80.0000 </r>
       <r>    -5.0087     0.0000    80.0000 </r>
       <r>    -4.9371     0.0000    80.0000 </r>
       <r>    -4.8654     0.0000    80.0000 </r>
       <r>    -4.7938     0.0000    80.0000 </r>
       <r>    -4.7222     0.0000    80.0000 </r>
       <r>    -4.6506     0.0000    80.0000 </r>
       <r>    -4.5789     0.0000    80.0000 </r>
       <r>    -4.5073     0.0000    80.0000 </r>
       <r>    -4.4357     0.0000    80.0000 </r>
[...]
       <r>     0.2916     4.8051   100.4582 </r>
       <r>     0.3632    14.3718   101.4936 </r>
       <r>     0.4349    34.8037   104.0014 </r>
       <r>     0.5065    68.3637   108.9284 </r>
       <r>     0.5781   109.4402   116.8170 </r>
       <r>     0.6497   142.9997   127.1261 </r>
       <r>     0.7214   152.1336   138.0950 </r>
       <r>     0.7930   131.0264   147.5430 </r>
       <r>     0.8646    90.6818   154.0825 </r>
       <r>     0.9362    50.0548   157.6924 </r>
       <r>     1.0079    21.8912   159.2714 </r>
       <r>     1.0795     7.5455   159.8156 </r>
       <r>     1.1511     2.0416   159.9629 </r>
       <r>     1.2227     0.4323   159.9941 </r>
       <r>     1.2944     0.0715   159.9993 </r>
       <r>     1.3660     0.0092   159.9999 </r>
       <r>     1.4376     0.0009   160.0000 </r>
       <r>     1.5092     0.0001   160.0000 </r>
       <r>     1.5809     0.0000   160.0000 </r>
       <r>     1.6525     0.0000   160.0000 </r>
       <r>     1.7241     0.0000   160.0000 </r>
       <r>     1.7957     0.0000   160.0000 </r>
       <r>     1.8674     0.0000   160.0000 </r>
       <r>     1.9390     0.0000   160.0000 </r>
       <r>     2.0106     0.0000   160.0000 </r>
       <r>     2.0823     0.0000   160.0000 </r>
       <r>     2.1539     0.0000   160.0000 </r>
       <r>     2.2255     0.0000   160.0000 </r>
       <r>     2.2971     0.0000   160.0000 </r>
       <r>     2.3688     0.0000   160.0000 </r>
       <r>     2.4404     0.0000   160.0000 </r>
       <r>     2.5120     0.0000   160.0000 </r>
       <r>     2.5836     0.0000   160.0000 </r>
       <r>     2.6553     0.0000   160.0000 </r>
       <r>     2.7269     0.0000   160.0000 </r>
      </set>
     </set>
    </array>
   </total>
  </dos>
  <time name="totalsc">    1.83    1.88</time>
  <eigenvalues>
   <array>
    <dimension dim="1">band</dimension>
    <dimension dim="2">kpoint</dimension>
    <dimension dim="3">spin</dimension>
    <field>eigene</field>
    <field>occ</field>
    <set>
     <set comment="spin 1">
      <set comment="kpoint 1">
       <r>  -16.7509    1.0000 </r>
       <r>   -9.3515    1.0000 </r>
       <r>   -9.1734    1.0000 </r>
       <r>   -9.1190    1.0000 </r>
       <r>   -0.3311    0.0000 </r>
       <r>    0.5521    0.0000 </r>
       <r>    0.6819    0.0000 </r>
       <r>    0.7111    0.0000 </r>
      </set>
      <set comment="kpoint 2">
       <r>  -16.7508    1.0000 </r>
       <r>   -9.3514    1.0000 </r>
       <r>   -9.1733    1.0000 </r>
       <r>   -9.1190    1.0000 </r>
       <r>   -0.3334    0.0000 </r>
       <r>    0.5341    0.0000 </r>
       <r>    0.6969    0.0000 </r>
       <r>    0.7222    0.0000 </r>
      </set>
      <set comment="kpoint 3">
       <r>  -16.7508    1.0000 </r>
       <r>   -9.3515    1.0000 </r>
       <r>   -9.1735    1.0000 </r>
       <r>   -9.1192    1.0000 </r>
       <r>   -0.3327    0.0000 </r>
       <r>    0.5443    0.0000 </r>
       <r>    0.6908    0.0000 </r>
       <r>    0.7170    0.0000 </r>
      </set>
      <set comment="kpoint 4">
       <r>  -16.7509    1.0000 </r>
       <r>   -9.3516    1.0000 </r>
       <r>   -9.1734    1.0000 </r>
       <r>   -9.1191    1.0000 </r>
       <r>   -0.3402    0.0000 </r>
       <r>    0.5701    0.0000 </r>
       <r>    0.7003    0.0000 </r>
       <r>    0.7363    0.0000 </r>
      </set>
     </set>
    </set>
   </array>
  </eigenvalues>
  <separator name="orbital magnetization" >
   <v name="MAGDIPOLOUT">      0.00000000      0.00000000      0.00000000</v>
  </separator>
  <dos>
   <i name="efermi">     -8.15044060 </i>
   <total>
    <array>
     <dimension dim="1">gridpoints</dimension>
     <dimension dim="2">spin</dimension>
     <field>energy</field>
     <field>total</field>
     <field>integrated</field>
     <set>
      <set comment="spin 1">
       <r>   -18.7509     0.0000     0.0000 </r>
       <r>   -18.6792     0.0000     0.0000 </r>
       <r>   -18.6076     0.0000     0.0000 </r>
       <r>   -18.5360     0.0000     0.0000 </r>
       <r>   -18.4644     0.0000     0.0000 </r>
       <r>   -18.3927     0.0000     0.0000 </r>
       <r>   -18.3211     0.0000     0.0000 </r>
       <r>   -18.2495     0.0000     0.0000 </r>
       <r>   -18.1779     0.0000     0.0000 </r>
       <r>   -18.1063     0.0000     0.0000 </r>
       <r>   -18.0346     0.0000     0.0000 </r>
       <r>   -17.9630     0.0000     0.0000 </r>
       <r>   -17.8914     0.0000     0.0000 </r>
       <r>   -17.8198     0.0000     0.0000 </r>
       <r>   -17.7481     0.0000     0.0000 </r>
       <r>   -17.6765     0.0000     0.0000 </r>
       <r>   -17.6049     0.0000     0.0000 </r>
       <r>   -17.5333     0.0000     0.0000 </r>
       <r>   -17.4616     0.0000     0.0000 </r>
       <r>   -17.3900     0.0001     0.0000 </r>
       <r>   -17.3184     0.0008     0.0001 </r>
       <r>   -17.2468     0.0055     0.0005 </r>
       <r>   -17.1751     0.0313     0.0027 </r>
       <r>   -17.1035     0.1388     0.0126 </r>
       <r>   -17.0319     0.4782     0.0469 </r>
       <r>   -16.9603     1.2811     0.1386 </r>
       <r>   -16.8886     2.6697     0.3299 </r>
       <r>   -16.8170     4.3277     0.6398 </r>
       <r>   -16.7454     5.4576     1.0307 </r>
       <r>   -16.6738     5.3544     1.4142 </r>
       <r>   -16.6021     4.0868     1.7069 </r>
       <r>   -16.5305     2.4266     1.8807 </r>
       <r>   -16.4589     1.1208     1.9610 </r>
       <r>   -16.3873     0.4026     1.9899 </r>
       <r>   -16.3157     0.1125     1.9979 </r>
       <r>   -16.2440     0.0244     1.9997 </r>
       <r>   -16.1724     0.0041     2.0000 </r>
       <r>   -16.1008     0.0005     2.0000 </r>
       <r>   -16.0292     0.0001     2.0000 </r>
       <r>   -15.9575     0.0000     2.0000 </r>
       <r>   -15.8859     0.0000     2.0000 </r>
       <r>   -15.8143     0.0000     2.0000 </r>
       <r>   -15.7427     0.0000     2.0000 </r>
       <r>   -15.6710     0.0000     2.0000 </r>
       <r>   -15.5994     0.0000     2.0000 </r>
       <r>   -15.5278     0.0000     2.0000 </r>
       <r>   -15.4562     0.0000     2.0000 </r>
       <r>   -15.3845     0.0000     2.0000 </r>
       <r>   -15.3129     0.0000     2.0000 </r>
       <r>   -15.2413     0.0000     2.0000 </r>
       <r>   -15.1697     0.0000     2.0000 </r>
       <r>   -15.0980     0.0000     2.0000 </r>
       <r>   -15.0264     0.0000     2.0000 </r>
       <r>   -14.9548     0.0000     2.0000 </r>
       <r>   -14.8832     0.0000     2.0000 </r>
       <r>   -14.8115     0.0000     2.0000 </r>
       <r>   -14.7399     0.0000     2.0000 </r>
       <r>   -14.6683     0.0000     2.0000 </r>
       <r>   -14.5967     0.0000     2.0000 </r>
       <r>   -14.5250     0.0000     2.0000 </r>
       <r>   -14.4534     0.0000     2.0000 </r>
       <r>   -14.3818     0.0000     2.0000 </r>
       <r>   -14.3102     0.0000     2.0000 </r>
       <r>   -14.2386     0.0000     2.0000 </r>
       <r>   -14.1669     0.0000     2.0000 </r>
       <r>   -14.0953     0.0000     2.0000 </r>
       <r>   -14.0237     0.0000     2.0000 </r>
       <r>   -13.9521     0.0000     2.0000 </r>
       <r>   -13.8804     0.0000     2.0000 </r>
       <r>   -13.8088     0.0000     2.0000 </r>
       <r>   -13.7372     0.0000     2.0000 </r>
       <r>   -13.6656     0.0000     2.0000 </r>
       <r>   -13.5939     0.0000     2.0000 </r>
       <r>   -13.5223     0.0000     2.0000 </r>
       <r>   -13.4507     0.0000     2.0000 </r>
       <r>   -13.3791     0.0000     2.0000 </r>
       <r>   -13.3074     0.0000     2.0000 </r>
       <r>   -13.2358     0.0000     2.0000 </r>
       <r>   -13.1642     0.0000     2.0000 </r>
       <r>   -13.0926     0.0000     2.0000 </r>
       <r>   -13.0209     0.0000     2.0000 </r>
       <r>   -12.9493     0.0000     2.0000 </r>
       <r>   -12.8777     0.0000     2.0000 </r>
       <r>   -12.8061     0.0000     2.0000 </r>
       <r>   -12.7344     0.0000     2.0000 </r>
       <r>   -12.6628     0.0000     2.0000 </r>
       <r>   -12.5912     0.0000     2.0000 </r>
       <r>   -12.5196     0.0000     2.0000 </r>
       <r>   -12.4480     0.0000     2.0000 </r>
       <r>   -12.3763     0.0000     2.0000 </r>
       <r>   -12.3047     0.0000     2.0000 </r>
       <r>   -12.2331     0.0000     2.0000 </r>
       <r>   -12.1615     0.0000     2.0000 </r>
       <r>   -12.0898     0.0000     2.0000 </r>
       <r>   -12.0182     0.0000     2.0000 </r>
       <r>   -11.9466     0.0000     2.0000 </r>
       <r>   -11.8750     0.0000     2.0000 </r>
       <r>   -11.8033     0.0000     2.0000 </r>
       <r>   -11.7317     0.0000     2.0000 </r>
       <r>   -11.6601     0.0000     2.0000 </r>
       <r>   -11.5885     0.0000     2.0000 </r>
       <r>   -11.5168     0.0000     2.0000 </r>
       <r>   -11.4452     0.0000     2.0000 </r>
       <r>   -11.3736     0.0000     2.0000 </r>
       <r>   -11.3020     0.0000     2.0000 </r>
       <r>   -11.2303     0.0000     2.0000 </r>
       <r>   -11.1587     0.0000     2.0000 </r>
       <r>   -11.0871     0.0000     2.0000 </r>
       <r>   -11.0155     0.0000     2.0000 </r>
       <r>   -10.9438     0.0000     2.0000 </r>
       <r>   -10.8722     0.0000     2.0000 </r>
       <r>   -10.8006     0.0000     2.0000 </r>
       <r>   -10.7290     0.0000     2.0000 </r>
       <r>   -10.6574     0.0000     2.0000 </r>
       <r>   -10.5857     0.0000     2.0000 </r>
       <r>   -10.5141     0.0000     2.0000 </r>
       <r>   -10.4425     0.0000     2.0000 </r>
       <r>   -10.3709     0.0000     2.0000 </r>
       <r>   -10.2992     0.0000     2.0000 </r>
       <r>   -10.2276     0.0000     2.0000 </r>
       <r>   -10.1560     0.0000     2.0000 </r>
       <r>   -10.0844     0.0000     2.0000 </r>
       <r>   -10.0127     0.0000     2.0000 </r>
       <r>    -9.9411     0.0004     2.0000 </r>
       <r>    -9.8695     0.0031     2.0003 </r>
       <r>    -9.7979     0.0190     2.0016 </r>
       <r>    -9.7262     0.0915     2.0082 </r>
       <r>    -9.6546     0.3455     2.0329 </r>
       <r>    -9.5830     1.0273     2.1065 </r>
       <r>    -9.5114     2.4329     2.2807 </r>
       <r>    -9.4397     4.6771     2.6157 </r>
       <r>    -9.3681     7.5055     3.1533 </r>
       <r>    -9.2965    10.3751     3.8964 </r>
       <r>    -9.2249    12.6109     4.7997 </r>
       <r>    -9.1532    13.4261     5.7613 </r>
       <r>    -9.0816    12.2123     6.6360 </r>
       <r>    -9.0100     9.2103     7.2957 </r>
       <r>    -8.9384     5.6250     7.6986 </r>
       <r>    -8.8668     2.7403     7.8948 </r>
       <r>    -8.7951     1.0557     7.9704 </r>
       <r>    -8.7235     0.3200     7.9934 </r>
       <r>    -8.6519     0.0761     7.9988 </r>
       <r>    -8.5803     0.0142     7.9998 </r>
       <r>    -8.5086     0.0021     8.0000 </r>
       <r>    -8.4370     0.0002     8.0000 </r>
       <r>    -8.3654     0.0000     8.0000 </r>
       <r>    -8.2938     0.0000     8.0000 </r>
       <r>    -8.2221     0.0000     8.0000 </r>
       <r>    -8.1505     0.0000     8.0000 </r>
       <r>    -8.0789     0.0000     8.0000 </r>
       <r>    -8.0073     0.0000     8.0000 </r>
       <r>    -7.9356     0.0000     8.0000 </r>
       <r>    -7.8640     0.0000     8.0000 </r>
       <r>    -7.7924     0.0000     8.0000 </r>
       <r>    -7.7208     0.0000     8.0000 </r>
       <r>    -7.6491     0.0000     8.0000 </r>
       <r>    -7.5775     0.0000     8.0000 </r>
       <r>    -7.5059     0.0000     8.0000 </r>
       <r>    -7.4343     0.0000     8.0000 </r>
       <r>    -7.3626     0.0000     8.0000 </r>
       <r>    -7.2910     0.0000     8.0000 </r>
       <r>    -7.2194     0.0000     8.0000 </r>
       <r>    -7.1478     0.0000     8.0000 </r>
       <r>    -7.0762     0.0000     8.0000 </r>
       <r>    -7.0045     0.0000     8.0000 </r>
       <r>    -6.9329     0.0000     8.0000 </r>
       <r>    -6.8613     0.0000     8.0000 </r>
       <r>    -6.7897     0.0000     8.0000 </r>
       <r>    -6.7180     0.0000     8.0000 </r>
       <r>    -6.6464     0.0000     8.0000 </r>
       <r>    -6.5748     0.0000     8.0000 </r>
       <r>    -6.5032     0.0000     8.0000 </r>
       <r>    -6.4315     0.0000     8.0000 </r>
       <r>    -6.3599     0.0000     8.0000 </r>
       <r>    -6.2883     0.0000     8.0000 </r>
       <r>    -6.2167     0.0000     8.0000 </r>
       <r>    -6.1450     0.0000     8.0000 </r>
       <r>    -6.0734     0.0000     8.0000 </r>
       <r>    -6.0018     0.0000     8.0000 </r>
       <r>    -5.9302     0.0000     8.0000 </r>
       <r>    -5.8585     0.0000     8.0000 </r>
       <r>    -5.7869     0.0000     8.0000 </r>
       <r>    -5.7153     0.0000     8.0000 </r>
       <r>    -5.6437     0.0000     8.0000 </r>
       <r>    -5.5720     0.0000     8.0000 </r>
       <r>    -5.5004     0.0000     8.0000 </r>
       <r>    -5.4288     0.0000     8.0000 </r>
       <r>    -5.3572     0.0000     8.0000 </r>
       <r>    -5.2855     0.0000     8.0000 </r>
       <r>    -5.2139     0.0000     8.0000 </r>
       <r>    -5.1423     0.0000     8.0000 </r>
       <r>    -5.0707     0.0000     8.0000 </r>
       <r>    -4.9991     0.0000     8.0000 </r>
       <r>    -4.9274     0.0000     8.0000 </r>
       <r>    -4.8558     0.0000     8.0000 </r>
       <r>    -4.7842     0.0000     8.0000 </r>
       <r>    -4.7126     0.0000     8.0000 </r>
       <r>    -4.6409     0.0000     8.0000 </r>
       <r>    -4.5693     0.0000     8.0000 </r>
       <r>    -4.4977     0.0000     8.0000 </r>
       <r>    -4.4261     0.0000     8.0000 </r>
       <r>    -4.3544     0.0000     8.0000 </r>
       <r>    -4.2828     0.0000     8.0000 </r>
       <r>    -4.2112     0.0000     8.0000 </r>
       <r>    -4.1396     0.0000     8.0000 </r>
       <r>    -4.0679     0.0000     8.0000 </r>
       <r>    -3.9963     0.0000     8.0000 </r>
       <r>    -3.9247     0.0000     8.0000 </r>
       <r>    -3.8531     0.0000     8.0000 </r>
       <r>    -3.7814     0.0000     8.0000 </r>
       <r>    -3.7098     0.0000     8.0000 </r>
       <r>    -3.6382     0.0000     8.0000 </r>
       <r>    -3.5666     0.0000     8.0000 </r>
       <r>    -3.4949     0.0000     8.0000 </r>
       <r>    -3.4233     0.0000     8.0000 </r>
       <r>    -3.3517     0.0000     8.0000 </r>
       <r>    -3.2801     0.0000     8.0000 </r>
       <r>    -3.2085     0.0000     8.0000 </r>
       <r>    -3.1368     0.0000     8.0000 </r>
       <r>    -3.0652     0.0000     8.0000 </r>
       <r>    -2.9936     0.0000     8.0000 </r>
       <r>    -2.9220     0.0000     8.0000 </r>
       <r>    -2.8503     0.0000     8.0000 </r>
       <r>    -2.7787     0.0000     8.0000 </r>
       <r>    -2.7071     0.0000     8.0000 </r>
       <r>    -2.6355     0.0000     8.0000 </r>
       <r>    -2.5638     0.0000     8.0000 </r>
       <r>    -2.4922     0.0000     8.0000 </r>
       <r>    -2.4206     0.0000     8.0000 </r>
       <r>    -2.3490     0.0000     8.0000 </r>
       <r>    -2.2773     0.0000     8.0000 </r>
       <r>    -2.2057     0.0000     8.0000 </r>
       <r>    -2.1341     0.0000     8.0000 </r>
       <r>    -2.0625     0.0000     8.0000 </r>
       <r>    -1.9908     0.0000     8.0000 </r>
       <r>    -1.9192     0.0000     8.0000 </r>
       <r>    -1.8476     0.0000     8.0000 </r>
       <r>    -1.7760     0.0000     8.0000 </r>
       <r>    -1.7043     0.0000     8.0000 </r>
       <r>    -1.6327     0.0000     8.0000 </r>
       <r>    -1.5611     0.0000     8.0000 </r>
       <r>    -1.4895     0.0000     8.0000 </r>
       <r>    -1.4179     0.0000     8.0000 </r>
       <r>    -1.3462     0.0000     8.0000 </r>
       <r>    -1.2746     0.0000     8.0000 </r>
       <r>    -1.2030     0.0000     8.0000 </r>
       <r>    -1.1314     0.0000     8.0000 </r>
       <r>    -1.0597     0.0000     8.0000 </r>
       <r>    -0.9881     0.0000     8.0000 </r>
       <r>    -0.9165     0.0005     8.0000 </r>
       <r>    -0.8449     0.0038     8.0003 </r>
       <r>    -0.7732     0.0225     8.0019 </r>
       <r>    -0.7016     0.1048     8.0094 </r>
       <r>    -0.6300     0.3798     8.0366 </r>
       <r>    -0.5584     1.0704     8.1133 </r>
       <r>    -0.4867     2.3467     8.2814 </r>
       <r>    -0.4151     4.0024     8.5680 </r>
       <r>    -0.3435     5.3114     8.9485 </r>
       <r>    -0.2719     5.4843     9.3413 </r>
       <r>    -0.2002     4.4061     9.6569 </r>
       <r>    -0.1286     2.7543     9.8541 </r>
       <r>    -0.0570     1.3397     9.9501 </r>
       <r>     0.0146     0.5088     9.9865 </r>
       <r>     0.0863     0.1624     9.9982 </r>
       <r>     0.1579     0.1019    10.0055 </r>
       <r>     0.2295     0.2794    10.0255 </r>
       <r>     0.3011     0.8762    10.0882 </r>
       <r>     0.3727     2.2502    10.2494 </r>
       <r>     0.4444     4.7076    10.5866 </r>
       <r>     0.5160     8.1371    11.1694 </r>
       <r>     0.5876    11.7561    12.0114 </r>
       <r>     0.6592    14.2462    13.0318 </r>
       <r>     0.7309    14.3893    14.0624 </r>
       <r>     0.8025    11.9576    14.9189 </r>
       <r>     0.8741     8.0564    15.4959 </r>
       <r>     0.9457     4.3456    15.8071 </r>
       <r>     1.0174     1.8591    15.9403 </r>
       <r>     1.0890     0.6269    15.9852 </r>
       <r>     1.1606     0.1659    15.9971 </r>
       <r>     1.2322     0.0344    15.9995 </r>
       <r>     1.3039     0.0056    15.9999 </r>
       <r>     1.3755     0.0007    16.0000 </r>
       <r>     1.4471     0.0001    16.0000 </r>
       <r>     1.5187     0.0000    16.0000 </r>
       <r>     1.5904     0.0000    16.0000 </r>
       <r>     1.6620     0.0000    16.0000 </r>
       <r>     1.7336     0.0000    16.0000 </r>
       <r>     1.8052     0.0000    16.0000 </r>
       <r>     1.8769     0.0000    16.0000 </r>
       <r>     1.9485     0.0000    16.0000 </r>
       <r>     2.0201     0.0000    16.0000 </r>
       <r>     2.0917     0.0000    16.0000 </r>
       <r>     2.1633     0.0000    16.0000 </r>
       <r>     2.2350     0.0000    16.0000 </r>
       <r>     2.3066     0.0000    16.0000 </r>
       <r>     2.3782     0.0000    16.0000 </r>
       <r>     2.4498     0.0000    16.0000 </r>
       <r>     2.5215     0.0000    16.0000 </r>
       <r>     2.5931     0.0000    16.0000 </r>
       <r>     2.6647     0.0000    16.0000 </r>
       <r>     2.7363     0.0000    16.0000 </r>
      </set>
     </set>
    </array>
   </total>
  </dos>
 </calculation>
 <structure name="finalpos" >
  <crystal>
   <varray name="basis" >
    <v>       9.71924470       0.00000000       0.00000000 </v>
    <v>       0.10450817      10.20496356       0.00000000 </v>
    <v>      -0.21763387      -0.20975544       9.69984779 </v>
   </varray>
   <i name="volume">    962.07492178 </i>
   <varray name="rec_basis" >
    <v>       0.10288865      -0.00105367       0.00228571 </v>
    <v>       0.00000000       0.09799153       0.00211903 </v>
    <v>       0.00000000       0.00000000       0.10309440 </v>
   </varray>
  </crystal>
  <varray name="positions" >
   <v>       0.53884255       0.40522271       0.35617235 </v>
   <v>       0.38768426       0.48090502       0.43706533 </v>
   <v>       0.55242958       0.56225902       0.44364326 </v>
   <v>       0.53054913       0.41715463       0.54395252 </v>
   <v>       0.50357726       0.46757589       0.44521821 </v>
  </varray>
  <varray name="velocities" >
   <v>      -0.00003285       0.00001363      -0.00027657 </v>
   <v>      -0.00027338      -0.00000479      -0.00019929 </v>
   <v>       0.00018523      -0.00012862       0.00025074 </v>
   <v>       0.00029024       0.00024534       0.00029868 </v>
   <v>      -0.00001409      -0.00001045      -0.00000612 </v>
  </varray>
 </structure>
</modeling>
