unknown system                          
           1
     9.719245    0.000000    0.000000
     0.104508   10.204964    0.000000
    -0.217634   -0.209755    9.699848
   H    C 
   4   1
Direct configuration=     1
   0.53801081  0.40686089  0.36052136
   0.39473962  0.48026968  0.43874556
   0.55221058  0.56508475  0.44196614
   0.52777064  0.41711949  0.53889029
   0.50330866  0.46726006  0.44527733
Direct configuration=     2
   0.53805794  0.40677884  0.36035799
   0.39443450  0.48030312  0.43869779
   0.55219060  0.56497224  0.44200442
   0.52785542  0.41707719  0.53908614
   0.50332475  0.46727700  0.44527541
Direct configuration=     3
   0.53814672  0.40662271  0.36004396
   0.39385482  0.48036624  0.43860559
   0.55215410  0.56475646  0.44207953
   0.52802003  0.41699976  0.53946132
   0.50335495  0.46730916  0.44527175
Direct configuration=     4
   0.53826750  0.40640826  0.35960421
   0.39305542  0.48045199  0.43847370
   0.55210802  0.56445442  0.44218959
   0.52825444  0.41690067  0.53998487
   0.50339577  0.46735327  0.44526659
Direct configuration=     5
   0.53840706  0.40615708  0.35907316
   0.39210957  0.48055105  0.43830867
   0.55206188  0.56408975  0.44233191
   0.52854478  0.41679810  0.54061439
   0.50344257  0.46740483  0.44526028
Direct configuration=     6
   0.53855039  0.40589404  0.35849073
   0.39109955  0.48065318  0.43811820
   0.55202735  0.56369161  0.44250309
   0.52887489  0.41671246  0.54130104
   0.50349012  0.46745851  0.44525321
Direct configuration=     7
   0.53868210  0.40564491  0.35789883
   0.39010834  0.48074827  0.43791052
   0.55201706  0.56329202  0.44269916
   0.52922758  0.41666415  0.54199400
   0.50353317  0.46750863  0.44524576
Direct configuration=     8
   0.53878780  0.40543420  0.35733805
   0.38921284  0.48082729  0.43769390
   0.55204331  0.56292308  0.44291582
   0.52958590  0.41667166  0.54264454
   0.50356691  0.46754968  0.44523829
Direct configuration=     9
   0.53885529  0.40528333  0.35684478
   0.38847883  0.48088289  0.43747621
   0.55211661  0.56261390  0.44314848
   0.52993419  0.41674995  0.54320948
   0.50358730  0.46757684  0.44523107
Direct configuration=    10
   0.53887539  0.40520909  0.35644891
   0.38795764  0.48090981  0.43726462
   0.55224435  0.56238765  0.44339252
   0.53025889  0.41690929  0.54365385
   0.50359135  0.46758635  0.44522433
