 vasp.5.4.4.18Apr17-6-g9f103f2a35 (build Nov 25 2021 15:25:00) complex          
  
 executed on             LinuxIFC date 2022.02.21  10:17:03
 running on   16 total cores
 distrk:  each k-point on   16 cores,    1 groups
 distr:  one band on NCORES_PER_BAND=   4 cores,    4 groups


--------------------------------------------------------------------------------------------------------


 INCAR:
 POTCAR:    PAW_PBE H 15Jun2001                   
 POTCAR:    PAW_PBE C 08Apr2002                   
 POTCAR:    PAW_PBE H 15Jun2001                   
   VRHFIN =H: ultrasoft test                                                    
   LEXCH  = PE                                                                  
   EATOM  =    12.4884 eV,    0.9179 Ry                                         
                                                                                
   TITEL  = PAW_PBE H 15Jun2001                                                 
   LULTRA =        F    use ultrasoft PP ?                                      
   IUNSCR =        0    unscreen: 0-lin 1-nonlin 2-no                           
   RPACOR =    0.000    partial core radius                                     
   POMASS =    1.000; ZVAL   =    1.000    mass and valenz                      
   RCORE  =    1.100    outmost cutoff radius                                   
   RWIGS  =    0.700; RWIGS  =    0.370    wigner-seitz radius (au A)           
   ENMAX  =  250.000; ENMIN  =  200.000 eV                                      
   RCLOC  =    0.701    cutoff for local pot                                    
   LCOR   =        T    correct aug charges                                     
   LPAW   =        T    paw PP                                                  
   EAUG   =  400.000                                                            
   RMAX   =    1.123    core radius for proj-oper                               
   RAUG   =    1.200    factor for augmentation sphere                          
   RDEP   =    1.112    radius for radial grids                                 
   RDEPT  =    0.926    core radius for aug-charge                              
                                                                                
   Atomic configuration                                                         
    2 entries                                                                   
     n  l   j            E        occ.                                          
     1  0  0.50        -6.4927   1.0000                                         
     2  1  0.50        -3.4015   0.0000                                         
   Description                                                                  
     l       E           TYP  RCUT    TYP  RCUT                                 
     0     -6.4927494     23  1.100                                             
     0      6.8029130     23  1.100                                             
     1     -4.0817478     23  1.100                                             
  local pseudopotential read in
  atomic valenz-charges read in
  non local Contribution for L=           0  read in
    real space projection operators read in
  non local Contribution for L=           0  read in
    real space projection operators read in
  non local Contribution for L=           1  read in
    real space projection operators read in
    PAW grid and wavefunctions read in
 
   number of l-projection  operators is LMAX  =           3
   number of lm-projection operators is LMMAX =           5
 
 POTCAR:    PAW_PBE C 08Apr2002                   
   VRHFIN =C: s2p2                                                              
   LEXCH  = PE                                                                  
   EATOM  =   147.1560 eV,   10.8157 Ry                                         
                                                                                
   TITEL  = PAW_PBE C 08Apr2002                                                 
   LULTRA =        F    use ultrasoft PP ?                                      
   IUNSCR =        1    unscreen: 0-lin 1-nonlin 2-no                           
   RPACOR =    1.200    partial core radius                                     
   POMASS =   12.011; ZVAL   =    4.000    mass and valenz                      
   RCORE  =    1.500    outmost cutoff radius                                   
   RWIGS  =    1.630; RWIGS  =    0.863    wigner-seitz radius (au A)           
   ENMAX  =  400.000; ENMIN  =  300.000 eV                                      
   ICORE  =        2    local potential                                         
   LCOR   =        T    correct aug charges                                     
   LPAW   =        T    paw PP                                                  
   EAUG   =  644.873                                                            
   DEXC   =    0.000                                                            
   RMAX   =    1.529    core radius for proj-oper                               
   RAUG   =    1.300    factor for augmentation sphere                          
   RDEP   =    1.501    radius for radial grids                                 
   RDEPT  =    1.300    core radius for aug-charge                              
                                                                                
   Atomic configuration                                                         
    4 entries                                                                   
     n  l   j            E        occ.                                          
     1  0  0.50      -273.3789   2.0000                                         
     2  0  0.50       -13.7508   2.0000                                         
     2  1  0.50        -5.2854   2.0000                                         
     3  2  1.50        -5.4423   0.0000                                         
   Description                                                                  
     l       E           TYP  RCUT    TYP  RCUT                                 
     0    -13.7508458     23  1.200                                             
     0     -8.2022199     23  1.200                                             
     1     -5.2854383     23  1.500                                             
     1     34.0145650     23  1.500                                             
     2     -5.4423304      7  1.500                                             
  local pseudopotential read in
  partial core-charges read in
  partial kinetic energy density read in
  atomic valenz-charges read in
  non local Contribution for L=           0  read in
    real space projection operators read in
  non local Contribution for L=           0  read in
    real space projection operators read in
  non local Contribution for L=           1  read in
    real space projection operators read in
  non local Contribution for L=           1  read in
    real space projection operators read in
    PAW grid and wavefunctions read in
 
   number of l-projection  operators is LMAX  =           4
   number of lm-projection operators is LMMAX =           8
 
  PAW_PBE H 15Jun2001                   :
 energy of atom  1       EATOM=  -12.4884
 kinetic energy error for atom=    0.0098 (will be added to EATOM!!)
  PAW_PBE C 08Apr2002                   :
 energy of atom  2       EATOM= -147.1560
 kinetic energy error for atom=    0.0288 (will be added to EATOM!!)
 
 
 POSCAR:  H  C                                   
  positions in cartesian coordinates
  No initial velocities read in
 exchange correlation table for  LEXCH =        8
   RHO(1)=    0.500       N(1)  =     2000
   RHO(2)=  100.500       N(2)  =     4000

 VTST: version 3.2, (02/03/18)

 CHAIN: initializing optimizer
 
 OPT: Using VASP Dynamics algorithm
 CHAIN: Read ICHAIN            0
 
 POSCAR:  H  C                                   
  positions in cartesian coordinates
  No initial velocities read in
 


--------------------------------------------------------------------------------------------------------


 ion  position               nearest neighbor table
   1  0.538  0.407  0.361-   5 1.10
   2  0.394  0.480  0.439-   5 1.07
   3  0.552  0.565  0.442-   5 1.12
   4  0.528  0.416  0.539-   5 1.10
   5  0.503  0.467  0.445-   2 1.07   1 1.10   4 1.10   3 1.12
 

IMPORTANT INFORMATION: All symmetrisations will be switched off!
NOSYMM: (Re-)initialisation of all symmetry stuff for point group C_1.

 
 

Automatic generation of k-mesh.
 generate k-points for:    2    2    2
Space group operators:
 irot       det(A)        alpha          n_x          n_y          n_z        tau_x        tau_y        tau_z
    1     1.000000     0.000000     1.000000     0.000000     0.000000     0.000000     0.000000     0.000000
 
 Subroutine IBZKPT returns following result:
 ===========================================
 
 Found      4 irreducible k-points:
 
 Following reciprocal coordinates:
            Coordinates               Weight
  0.250000  0.250000  0.250000      2.000000
 -0.250000  0.250000  0.250000      2.000000
  0.250000 -0.250000  0.250000      2.000000
 -0.250000 -0.250000  0.250000      2.000000
 
 Following cartesian coordinates:
            Coordinates               Weight
  0.025764  0.024301  0.025238      2.000000
 -0.025764  0.024409  0.025146      2.000000
  0.025764 -0.024409  0.024981      2.000000
 -0.025764 -0.024301  0.024889      2.000000
 


--------------------------------------------------------------------------------------------------------




 Dimension of arrays:
   k-points           NKPTS =      4   k-points in BZ     NKDIM =      4   number of bands    NBANDS=      8
   number of dos      NEDOS =    301   number of ions     NIONS =      5
   non local maximal  LDIM  =      4   non local SUM 2l+1 LMDIM =      8
   total plane-waves  NPLWV = 313600
   max r-space proj   IRMAX =      1   max aug-charges    IRDMAX=   3924
   dimension x,y,z NGX =    64 NGY =   70 NGZ =   70
   dimension x,y,z NGXF=   128 NGYF=  140 NGZF=  140
   support grid    NGXF=   128 NGYF=  140 NGZF=  140
   ions per type =               4   1
   NGX,Y,Z   is equivalent  to a cutoff of  10.96, 11.34, 11.67 a.u.
   NGXF,Y,Z  is equivalent  to a cutoff of  21.93, 22.67, 23.33 a.u.

 SYSTEM =  unknown system                          
 POSCAR =   H  C                                   

 Startparameter for this run:
   NWRITE =      2    write-flag & timer
   PREC   = a         normal or accurate (medium, high low for compatibility)
   ISTART =      0    job   : 0-new  1-cont  2-samecut
   ICHARG =      2    charge: 1-file 2-atom 10-const
   ISPIN  =      1    spin polarized calculation?
   LNONCOLLINEAR =      F non collinear calculations
   LSORBIT =      F    spin-orbit coupling
   INIWAV =      1    electr: 0-lowe 1-rand  2-diag
   LASPH  =      F    aspherical Exc in radial PAW
   METAGGA=      F    non-selfconsistent MetaGGA calc.

 Electronic Relaxation 1
   ENCUT  =  400.0 eV  29.40 Ry    5.42 a.u.  15.82 16.74 16.27*2*pi/ulx,y,z
   ENINI  =  400.0     initial cutoff
   ENAUG  =  644.9 eV  augmentation charge cutoff
   NELM   =    120;   NELMIN=  4; NELMDL= -5     # of ELM steps 
   EDIFF  = 0.1E-05   stopping-criterion for ELM
   LREAL  =      F    real-space projection
   NLSPLINE    = F    spline interpolate recip. space projectors
   LCOMPAT=      F    compatible to vasp.4.4
   GGA_COMPAT  = T    GGA compatible to vasp.4.4-vasp.4.6
   LMAXPAW     = -100 max onsite density
   LMAXMIX     =    2 max onsite mixed and CHGCAR
   VOSKOWN=      0    Vosko Wilk Nusair interpolation
   ROPT   =    0.00000   0.00000
 Ionic relaxation
   EDIFFG = 0.1E-04   stopping-criterion for IOM
   NSW    =     10    number of steps for IOM
   NBLOCK =      1;   KBLOCK =     10    inner block; outer block 
   IBRION =      0    ionic relax: 0-MD 1-quasi-New 2-CG
   NFREE  =      0    steps in history (QN), initial steepest desc. (CG)
   ISIF   =      2    stress and relaxation
   IWAVPR =     12    prediction:  0-non 1-charg 2-wave 3-comb
   ISYM   =      0    0-nonsym 1-usesym 2-fastsym
   LCORR  =      T    Harris-Foulkes like correction to forces

   POTIM  = 0.5000    time-step for ionic-motion
   TEIN   =    0.0    initial temperature
   TEBEG  =    0.0;   TEEND  =   0.0 temperature during run
   SMASS  =  -3.00    Nose mass-parameter (am)
   estimated Nose-frequenzy (Omega)   =  0.10E-29 period in steps =****** mass=  -0.215E-26a.u.
   SCALEE = 1.0000    scale energy and forces
   NPACO  =    256;   APACO  = 16.0  distance and # of slots for P.C.
   PSTRESS=    0.0 pullay stress

  Mass of Ions in am
   POMASS =   1.00 12.01
  Ionic Valenz
   ZVAL   =   1.00  4.00
  Atomic Wigner-Seitz radii
   RWIGS  =  -1.00 -1.00
  virtual crystal weights 
   VCA    =   1.00  1.00
   NELECT =       8.0000    total number of electrons
   NUPDOWN=      -1.0000    fix difference up-down

 DOS related values:
   EMIN   =  10.00;   EMAX   =-10.00  energy-range for DOS
   EFERMI =   0.00
   ISMEAR =     0;   SIGMA  =   0.20  broadening in eV -4-tet -1-fermi 0-gaus

 Electronic relaxation 2 (details)
   IALGO  =     68    algorithm
   LDIAG  =      T    sub-space diagonalisation (order eigenvalues)
   LSUBROT=      F    optimize rotation matrix (better conditioning)
   TURBO    =      0    0=normal 1=particle mesh
   IRESTART =      0    0=no restart 2=restart with 2 vectors
   NREBOOT  =      0    no. of reboots
   NMIN     =      0    reboot dimension
   EREF     =   0.00    reference energy to select bands
   IMIX   =      4    mixing-type and parameters
     AMIX     =   0.40;   BMIX     =  1.00
     AMIX_MAG =   1.60;   BMIX_MAG =  1.00
     AMIN     =   0.10
     WC   =   100.;   INIMIX=   1;  MIXPRE=   1;  MAXMIX= -45

 Intra band minimization:
   WEIMIN = 0.0010     energy-eigenvalue tresh-hold
   EBREAK =  0.31E-07  absolut break condition
   DEPER  =   0.30     relativ break condition  

   TIME   =   0.40     timestep for ELM

  volume/ion in A,a.u.               =     198.70      1340.90
  Fermi-wavevector in a.u.,A,eV,Ry     =   0.328132  0.620080  1.464949  0.107671
  Thomas-Fermi vector in A             =   1.221457
 
 Write flags
   LWAVE        =      F    write WAVECAR
   LDOWNSAMPLE  =      F    k-point downsampling of WAVECAR
   LCHARG       =      F    write CHGCAR
   LVTOT        =      F    write LOCPOT, total local potential
   LVHAR        =      F    write LOCPOT, Hartree potential only
   LELF         =      F    write electronic localiz. function (ELF)
   LORBIT       =      0    0 simple, 1 ext, 2 COOP (PROOUT), +10 PAW based schemes


 Dipole corrections
   LMONO  =      F    monopole corrections only (constant potential shift)
   LDIPOL =      F    correct potential (dipole corrections)
   IDIPOL =      0    1-x, 2-y, 3-z, 4-all directions 
   EPSILON=  1.0000000 bulk dielectric constant

 Exchange correlation treatment:
   GGA     =    --    GGA type
   LEXCH   =     8    internal setting for exchange type
   VOSKOWN=      0    Vosko Wilk Nusair interpolation
   LHFCALC =     F    Hartree Fock is set to
   LHFONE  =     F    Hartree Fock one center treatment
   AEXX    =    0.0000 exact exchange contribution

 Linear response parameters
   LEPSILON=     F    determine dielectric tensor
   LRPA    =     F    only Hartree local field effects (RPA)
   LNABLA  =     F    use nabla operator in PAW spheres
   LVEL    =     F    velocity operator in full k-point grid
   LINTERFAST=   F  fast interpolation
   KINTER  =     0    interpolate to denser k-point grid
   CSHIFT  =0.1000    complex shift for real part using Kramers Kronig
   OMEGAMAX=  -1.0    maximum frequency
   DEG_THRESHOLD= 0.2000000E-02 threshold for treating states as degnerate
   RTIME   =   -0.100 relaxation time in fs
  (WPLASMAI=    0.000 imaginary part of plasma frequency in eV, 0.658/RTIME)
   DFIELD  = 0.0000000 0.0000000 0.0000000 field for delta impulse in time
 
 Orbital magnetization related:
   ORBITALMAG=     F  switch on orbital magnetization
   LCHIMAG   =     F  perturbation theory with respect to B field
   DQ        =  0.001000  dq finite difference perturbation B field
   LLRAUG    =     F  two centre corrections for induced B field



--------------------------------------------------------------------------------------------------------


 molecular dynamics for ions
   using a microcanonical ensemble
 charge density and potential will be updated during run
 non-spin polarized calculation
 RMM-DIIS sequential band-by-band and
  variant of blocked Davidson during initial phase
 perform sub-space diagonalisation
    before iterative eigenvector-optimisation
 modified Broyden-mixing scheme, WC =      100.0
 initial mixing is a Kerker type mixing with AMIX =  0.4000 and BMIX =      1.0000
 Hartree-type preconditioning will be used
 using additional bands            4
 reciprocal scheme for non local part
 use partial core corrections
 calculate Harris-corrections to forces 
   (improved forces if not selfconsistent)
 use gradient corrections 
 use of overlap-Matrix (Vanderbilt PP)
 Gauss-broadening in eV      SIGMA  =   0.20


--------------------------------------------------------------------------------------------------------


  energy-cutoff  :      400.00
  volume of cell :      993.50
      direct lattice vectors                 reciprocal lattice vectors
     9.703409344  0.000000000  0.000000000     0.103056561 -0.000214621  0.000183809
     0.021377035 10.264789430  0.000000000     0.000000000  0.097420411  0.000513858
    -0.017899940 -0.052612237  9.974563119     0.000000000  0.000000000  0.100255017

  length of vectors
     9.703409344 10.264811689  9.974717934     0.103056949  0.097421766  0.100255017


 
 k-points in units of 2pi/SCALE and weight: read from INCAR                         
   0.02576414  0.02430145  0.02523817       0.250
  -0.02576414  0.02440876  0.02514627       0.250
   0.02576414 -0.02440876  0.02498124       0.250
  -0.02576414 -0.02430145  0.02488934       0.250
 
 k-points in reciprocal lattice and weights: read from INCAR                         
   0.25000000  0.25000000  0.25000000       0.250
  -0.25000000  0.25000000  0.25000000       0.250
   0.25000000 -0.25000000  0.25000000       0.250
  -0.25000000 -0.25000000  0.25000000       0.250
 
 position of ions in fractional coordinates (direct lattice) 
   0.53827181  0.40673182  0.36052743
   0.39429192  0.47966480  0.43865737
   0.55229315  0.56526454  0.44243494
   0.52764518  0.41619659  0.53907939
   0.50319486  0.46719630  0.44515437
 
 position of ions in cartesian coordinates  (Angst):
   5.22531298  4.15604830  3.59610357
   3.82837775  4.90057942  4.37541562
   5.36329060  5.77904395  4.41309525
   5.11920469  4.24380815  5.37708145
   4.88472477  4.77225106  4.44022037
 


--------------------------------------------------------------------------------------------------------


 k-point  1 :   0.2500 0.2500 0.2500  plane waves:   18044
 k-point  2 :  -0.2500 0.2500 0.2500  plane waves:   18052
 k-point  3 :   0.2500-0.2500 0.2500  plane waves:   18037
 k-point  4 :  -0.2500-0.2500 0.2500  plane waves:   18038

 maximum and minimum number of plane-waves per node :      4525     4491

 maximum number of plane-waves:     18052
 maximum index in each direction: 
   IXMAX=   16   IYMAX=   16   IZMAX=   16
   IXMIN=  -16   IYMIN=  -16   IZMIN=  -16


 parallel 3D FFT for wavefunctions:
    minimum data exchange during FFTs selected (reduces bandwidth)
 parallel 3D FFT for charge:
    minimum data exchange during FFTs selected (reduces bandwidth)


 total amount of memory used by VASP MPI-rank0    52935. kBytes
=======================================================================

   base      :      30000. kBytes
   nonl-proj :       2673. kBytes
   fftplans  :       7644. kBytes
   grid      :      12032. kBytes
   one-center:          6. kBytes
   wavefun   :        580. kBytes
 
     INWAV:  cpu time    0.0000: real time    0.0001
 Broyden mixing: mesh for mixing (old mesh)
   NGX = 31   NGY = 33   NGZ = 33
  (NGX  =128   NGY  =140   NGZ  =140)
  gives a total of  33759 points

 initial charge density was supplied:
 charge density of overlapping atoms calculated
 number of electron       8.0000000 magnetization 
 keeping initial charge density in first step


--------------------------------------------------------------------------------------------------------


 Maximum index for augmentation-charges          291 (set IRDMAX)


--------------------------------------------------------------------------------------------------------


 First call to EWALD:  gamma=   0.178
 Maximum number of real-space cells 3x 3x 3
 Maximum number of reciprocal cells 3x 3x 3

    FEWALD:  cpu time    0.0015: real time    0.0016


--------------------------------------- Iteration      1(   1)  ---------------------------------------


    POTLOK:  cpu time    0.1548: real time    0.1675
    SETDIJ:  cpu time    0.0034: real time    0.0043
     EDDAV:  cpu time    0.2041: real time    0.2289
       DOS:  cpu time    0.0005: real time    0.0010
    --------------------------------------------
      LOOP:  cpu time    0.3628: real time    0.4017

 eigenvalue-minimisations  :    96
 total energy-change (2. order) : 0.1185364E+02  (-0.2073046E+03)
 number of electron       8.0000000 magnetization 
 augmentation part        8.0000000 magnetization 

 Free energy of the ion-electron system (eV)
  ---------------------------------------------------
  alpha Z        PSCENC =         0.24383549
  Ewald energy   TEWEN  =       128.96445969
  -Hartree energ DENC   =      -244.01166457
  -exchange      EXHF   =         0.00000000
  -V(xc)+E(xc)   XCENC  =        22.01936315
  PAW double counting   =       117.05815612     -117.66307307
  entropy T*S    EENTRO =        -0.00000000
  eigenvalues    EBANDS =       -91.79919633
  atomic energy  EATOM  =       197.04175453
  Solvation  Ediel_sol  =         0.00000000
  ---------------------------------------------------
  free energy    TOTEN  =        11.85363502 eV

  energy without entropy =       11.85363502  energy(sigma->0) =       11.85363502


--------------------------------------------------------------------------------------------------------




--------------------------------------- Iteration      1(   2)  ---------------------------------------


     EDDAV:  cpu time    0.1528: real time    0.1558
       DOS:  cpu time    0.0003: real time    0.0003
    --------------------------------------------
      LOOP:  cpu time    0.1531: real time    0.1561

 eigenvalue-minimisations  :    64
 total energy-change (2. order) :-0.3571737E+02  (-0.3571737E+02)
 number of electron       8.0000000 magnetization 
 augmentation part        8.0000000 magnetization 

 Free energy of the ion-electron system (eV)
  ---------------------------------------------------
  alpha Z        PSCENC =         0.24383549
  Ewald energy   TEWEN  =       128.96445969
  -Hartree energ DENC   =      -244.01166457
  -exchange      EXHF   =         0.00000000
  -V(xc)+E(xc)   XCENC  =        22.01936315
  PAW double counting   =       117.05815612     -117.66307307
  entropy T*S    EENTRO =        -0.00000000
  eigenvalues    EBANDS =      -127.51656204
  atomic energy  EATOM  =       197.04175453
  Solvation  Ediel_sol  =         0.00000000
  ---------------------------------------------------
  free energy    TOTEN  =       -23.86373069 eV

  energy without entropy =      -23.86373069  energy(sigma->0) =      -23.86373069


--------------------------------------------------------------------------------------------------------




--------------------------------------- Iteration      1(   3)  ---------------------------------------


     EDDAV:  cpu time    0.1623: real time    0.1638
       DOS:  cpu time    0.0002: real time    0.0002
    --------------------------------------------
      LOOP:  cpu time    0.1625: real time    0.1640

 eigenvalue-minimisations  :    64
 total energy-change (2. order) :-0.3563907E+01  (-0.3563907E+01)
 number of electron       8.0000000 magnetization 
 augmentation part        8.0000000 magnetization 

 Free energy of the ion-electron system (eV)
  ---------------------------------------------------
  alpha Z        PSCENC =         0.24383549
  Ewald energy   TEWEN  =       128.96445969
  -Hartree energ DENC   =      -244.01166457
  -exchange      EXHF   =         0.00000000
  -V(xc)+E(xc)   XCENC  =        22.01936315
  PAW double counting   =       117.05815612     -117.66307307
  entropy T*S    EENTRO =        -0.00000000
  eigenvalues    EBANDS =      -131.08046879
  atomic energy  EATOM  =       197.04175453
  Solvation  Ediel_sol  =         0.00000000
  ---------------------------------------------------
  free energy    TOTEN  =       -27.42763744 eV

  energy without entropy =      -27.42763744  energy(sigma->0) =      -27.42763744


--------------------------------------------------------------------------------------------------------




--------------------------------------- Iteration      1(   4)  ---------------------------------------


     EDDAV:  cpu time    0.2550: real time    0.2650
       DOS:  cpu time    0.0004: real time    0.0004
    --------------------------------------------
      LOOP:  cpu time    0.2554: real time    0.2654

 eigenvalue-minimisations  :   128
 total energy-change (2. order) :-0.1343446E+00  (-0.1343446E+00)
 number of electron       8.0000000 magnetization 
 augmentation part        8.0000000 magnetization 

 Free energy of the ion-electron system (eV)
  ---------------------------------------------------
  alpha Z        PSCENC =         0.24383549
  Ewald energy   TEWEN  =       128.96445969
  -Hartree energ DENC   =      -244.01166457
  -exchange      EXHF   =         0.00000000
  -V(xc)+E(xc)   XCENC  =        22.01936315
  PAW double counting   =       117.05815612     -117.66307307
  entropy T*S    EENTRO =        -0.00000000
  eigenvalues    EBANDS =      -131.21481344
  atomic energy  EATOM  =       197.04175453
  Solvation  Ediel_sol  =         0.00000000
  ---------------------------------------------------
  free energy    TOTEN  =       -27.56198209 eV

  energy without entropy =      -27.56198209  energy(sigma->0) =      -27.56198209


--------------------------------------------------------------------------------------------------------




--------------------------------------- Iteration      1(   5)  ---------------------------------------


     EDDAV:  cpu time    0.2059: real time    0.2087
       DOS:  cpu time    0.0003: real time    0.0003
    CHARGE:  cpu time    0.0243: real time    0.0246
    MIXING:  cpu time    0.0043: real time    0.0043
    --------------------------------------------
      LOOP:  cpu time    0.2350: real time    0.2381

 eigenvalue-minimisations  :    96
 total energy-change (2. order) :-0.3574281E-04  (-0.3574283E-04)
 number of electron       8.0000000 magnetization 
 augmentation part        0.2260330 magnetization 

 Broyden mixing:
  rms(total) = 0.87598E+00    rms(broyden)= 0.87573E+00
  rms(prec ) = 0.12324E+01
  weight for this iteration     100.00

 Free energy of the ion-electron system (eV)
  ---------------------------------------------------
  alpha Z        PSCENC =         0.24383549
  Ewald energy   TEWEN  =       128.96445969
  -Hartree energ DENC   =      -244.01166457
  -exchange      EXHF   =         0.00000000
  -V(xc)+E(xc)   XCENC  =        22.01936315
  PAW double counting   =       117.05815612     -117.66307307
  entropy T*S    EENTRO =        -0.00000000
  eigenvalues    EBANDS =      -131.21484918
  atomic energy  EATOM  =       197.04175453
  Solvation  Ediel_sol  =         0.00000000
  ---------------------------------------------------
  free energy    TOTEN  =       -27.56201783 eV

  energy without entropy =      -27.56201783  energy(sigma->0) =      -27.56201783


--------------------------------------------------------------------------------------------------------




--------------------------------------- Iteration      1(   6)  ---------------------------------------


    POTLOK:  cpu time    0.1503: real time    0.1526
    SETDIJ:  cpu time    0.0017: real time    0.0017
    EDDIAG:  cpu time    0.0476: real time    0.0565
  RMM-DIIS:  cpu time    0.1606: real time    0.1628
    ORTHCH:  cpu time    0.0020: real time    0.0020
       DOS:  cpu time    0.0002: real time    0.0002
    CHARGE:  cpu time    0.0237: real time    0.0237
    MIXING:  cpu time    0.0045: real time    0.0057
    --------------------------------------------
      LOOP:  cpu time    0.3907: real time    0.4053

 eigenvalue-minimisations  :    64
 total energy-change (2. order) : 0.2919274E+01  (-0.5393932E+00)
 number of electron       8.0000000 magnetization 
 augmentation part        0.1991930 magnetization 

 Broyden mixing:
  rms(total) = 0.43126E+00    rms(broyden)= 0.43116E+00
  rms(prec ) = 0.55650E+00
  weight for this iteration     100.00

 eigenvalues of (default mixing * dielectric matrix)
  average eigenvalue GAMMA=   1.3057
  1.3057

 Free energy of the ion-electron system (eV)
  ---------------------------------------------------
  alpha Z        PSCENC =         0.24383549
  Ewald energy   TEWEN  =       128.96445969
  -Hartree energ DENC   =      -263.82230681
  -exchange      EXHF   =         0.00000000
  -V(xc)+E(xc)   XCENC  =        23.22225044
  PAW double counting   =       239.11596089     -239.89689991
  entropy T*S    EENTRO =        -0.00000000
  eigenvalues    EBANDS =      -109.51179766
  atomic energy  EATOM  =       197.04175453
  Solvation  Ediel_sol  =         0.00000000
  ---------------------------------------------------
  free energy    TOTEN  =       -24.64274333 eV

  energy without entropy =      -24.64274333  energy(sigma->0) =      -24.64274333


--------------------------------------------------------------------------------------------------------




--------------------------------------- Iteration      1(   7)  ---------------------------------------


    POTLOK:  cpu time    0.1524: real time    0.1528
    SETDIJ:  cpu time    0.0017: real time    0.0017
    EDDIAG:  cpu time    0.0440: real time    0.0445
  RMM-DIIS:  cpu time    0.1603: real time    0.1634
    ORTHCH:  cpu time    0.0015: real time    0.0015
       DOS:  cpu time    0.0002: real time    0.0002
    CHARGE:  cpu time    0.0227: real time    0.0230
    MIXING:  cpu time    0.0044: real time    0.0045
    --------------------------------------------
      LOOP:  cpu time    0.3871: real time    0.3914

 eigenvalue-minimisations  :    64
 total energy-change (2. order) : 0.4958346E+00  (-0.1223452E+00)
 number of electron       8.0000000 magnetization 
 augmentation part        0.1886336 magnetization 

 Broyden mixing:
  rms(total) = 0.22908E+00    rms(broyden)= 0.22902E+00
  rms(prec ) = 0.27562E+00
  weight for this iteration     100.00

 eigenvalues of (default mixing * dielectric matrix)
  average eigenvalue GAMMA=   1.8420
  1.4574  2.2266

 Free energy of the ion-electron system (eV)
  ---------------------------------------------------
  alpha Z        PSCENC =         0.24383549
  Ewald energy   TEWEN  =       128.96445969
  -Hartree energ DENC   =      -275.54507463
  -exchange      EXHF   =         0.00000000
  -V(xc)+E(xc)   XCENC  =        24.08275133
  PAW double counting   =       366.87610104     -367.69685076
  entropy T*S    EENTRO =        -0.00000000
  eigenvalues    EBANDS =       -98.11388545
  atomic energy  EATOM  =       197.04175453
  Solvation  Ediel_sol  =         0.00000000
  ---------------------------------------------------
  free energy    TOTEN  =       -24.14690875 eV

  energy without entropy =      -24.14690875  energy(sigma->0) =      -24.14690875


--------------------------------------------------------------------------------------------------------




--------------------------------------- Iteration      1(   8)  ---------------------------------------


    POTLOK:  cpu time    0.1514: real time    0.1525
    SETDIJ:  cpu time    0.0018: real time    0.0018
    EDDIAG:  cpu time    0.0438: real time    0.0438
  RMM-DIIS:  cpu time    0.1618: real time    0.1622
    ORTHCH:  cpu time    0.0014: real time    0.0014
       DOS:  cpu time    0.0003: real time    0.0003
    CHARGE:  cpu time    0.0226: real time    0.0226
    MIXING:  cpu time    0.0044: real time    0.0046
    --------------------------------------------
      LOOP:  cpu time    0.3874: real time    0.3892

 eigenvalue-minimisations  :    64
 total energy-change (2. order) : 0.1466078E+00  (-0.1629204E-01)
 number of electron       8.0000000 magnetization 
 augmentation part        0.1872351 magnetization 

 Broyden mixing:
  rms(total) = 0.22570E-01    rms(broyden)= 0.22543E-01
  rms(prec ) = 0.52118E-01
  weight for this iteration     100.00

 eigenvalues of (default mixing * dielectric matrix)
  average eigenvalue GAMMA=   1.5500
  2.2474  0.9942  1.4084

 Free energy of the ion-electron system (eV)
  ---------------------------------------------------
  alpha Z        PSCENC =         0.24383549
  Ewald energy   TEWEN  =       128.96445969
  -Hartree energ DENC   =      -280.96738003
  -exchange      EXHF   =         0.00000000
  -V(xc)+E(xc)   XCENC  =        24.61995650
  PAW double counting   =       477.08887675     -477.87775436
  entropy T*S    EENTRO =        -0.00000000
  eigenvalues    EBANDS =       -93.11404953
  atomic energy  EATOM  =       197.04175453
  Solvation  Ediel_sol  =         0.00000000
  ---------------------------------------------------
  free energy    TOTEN  =       -24.00030096 eV

  energy without entropy =      -24.00030096  energy(sigma->0) =      -24.00030096


--------------------------------------------------------------------------------------------------------




--------------------------------------- Iteration      1(   9)  ---------------------------------------


    POTLOK:  cpu time    0.1519: real time    0.1529
    SETDIJ:  cpu time    0.0017: real time    0.0017
    EDDIAG:  cpu time    0.0438: real time    0.0441
  RMM-DIIS:  cpu time    0.1622: real time    0.1626
    ORTHCH:  cpu time    0.0021: real time    0.0021
       DOS:  cpu time    0.0002: real time    0.0002
    CHARGE:  cpu time    0.0225: real time    0.0226
    MIXING:  cpu time    0.0046: real time    0.0061
    --------------------------------------------
      LOOP:  cpu time    0.3891: real time    0.3923

 eigenvalue-minimisations  :    64
 total energy-change (2. order) : 0.5626183E-02  (-0.1102462E-02)
 number of electron       8.0000000 magnetization 
 augmentation part        0.1866650 magnetization 

 Broyden mixing:
  rms(total) = 0.19545E-01    rms(broyden)= 0.19540E-01
  rms(prec ) = 0.40037E-01
  weight for this iteration     100.00

 eigenvalues of (default mixing * dielectric matrix)
  average eigenvalue GAMMA=   2.0921
  1.0037  1.3755  2.9947  2.9947

 Free energy of the ion-electron system (eV)
  ---------------------------------------------------
  alpha Z        PSCENC =         0.24383549
  Ewald energy   TEWEN  =       128.96445969
  -Hartree energ DENC   =      -282.22245146
  -exchange      EXHF   =         0.00000000
  -V(xc)+E(xc)   XCENC  =        24.68929549
  PAW double counting   =       480.49653541     -481.28803149
  entropy T*S    EENTRO =        -0.00000000
  eigenvalues    EBANDS =       -91.92007243
  atomic energy  EATOM  =       197.04175453
  Solvation  Ediel_sol  =         0.00000000
  ---------------------------------------------------
  free energy    TOTEN  =       -23.99467477 eV

  energy without entropy =      -23.99467477  energy(sigma->0) =      -23.99467477


--------------------------------------------------------------------------------------------------------




--------------------------------------- Iteration      1(  10)  ---------------------------------------


    POTLOK:  cpu time    0.1438: real time    0.1486
    SETDIJ:  cpu time    0.0017: real time    0.0017
    EDDIAG:  cpu time    0.0425: real time    0.0438
  RMM-DIIS:  cpu time    0.1602: real time    0.1656
    ORTHCH:  cpu time    0.0019: real time    0.0020
       DOS:  cpu time    0.0002: real time    0.0002
    CHARGE:  cpu time    0.0220: real time    0.0227
    MIXING:  cpu time    0.0046: real time    0.0047
    --------------------------------------------
      LOOP:  cpu time    0.3770: real time    0.3893

 eigenvalue-minimisations  :    64
 total energy-change (2. order) : 0.6097412E-02  (-0.2378384E-02)
 number of electron       8.0000000 magnetization 
 augmentation part        0.1856348 magnetization 

 Broyden mixing:
  rms(total) = 0.27475E-01    rms(broyden)= 0.27473E-01
  rms(prec ) = 0.34845E-01
  weight for this iteration     100.00

 eigenvalues of (default mixing * dielectric matrix)
  average eigenvalue GAMMA=   1.7826
  3.0513  2.4209  1.2306  1.2306  0.9796

 Free energy of the ion-electron system (eV)
  ---------------------------------------------------
  alpha Z        PSCENC =         0.24383549
  Ewald energy   TEWEN  =       128.96445969
  -Hartree energ DENC   =      -284.40644139
  -exchange      EXHF   =         0.00000000
  -V(xc)+E(xc)   XCENC  =        24.75892317
  PAW double counting   =       464.57917826     -465.37409716
  entropy T*S    EENTRO =        -0.00000000
  eigenvalues    EBANDS =       -89.79618996
  atomic energy  EATOM  =       197.04175453
  Solvation  Ediel_sol  =         0.00000000
  ---------------------------------------------------
  free energy    TOTEN  =       -23.98857736 eV

  energy without entropy =      -23.98857736  energy(sigma->0) =      -23.98857736


--------------------------------------------------------------------------------------------------------




--------------------------------------- Iteration      1(  11)  ---------------------------------------


    POTLOK:  cpu time    0.1434: real time    0.1487
    SETDIJ:  cpu time    0.0017: real time    0.0017
    EDDIAG:  cpu time    0.0422: real time    0.0436
  RMM-DIIS:  cpu time    0.1577: real time    0.1626
    ORTHCH:  cpu time    0.0016: real time    0.0017
       DOS:  cpu time    0.0002: real time    0.0002
    CHARGE:  cpu time    0.0216: real time    0.0227
    MIXING:  cpu time    0.0045: real time    0.0046
    --------------------------------------------
      LOOP:  cpu time    0.3730: real time    0.3858

 eigenvalue-minimisations  :    64
 total energy-change (2. order) :-0.7067472E-03  (-0.7575209E-03)
 number of electron       8.0000000 magnetization 
 augmentation part        0.1859796 magnetization 

 Broyden mixing:
  rms(total) = 0.80138E-02    rms(broyden)= 0.80104E-02
  rms(prec ) = 0.13820E-01
  weight for this iteration     100.00

 eigenvalues of (default mixing * dielectric matrix)
  average eigenvalue GAMMA=   2.2437
  4.6603  3.0685  2.4253  1.2909  1.0087  1.0087

 Free energy of the ion-electron system (eV)
  ---------------------------------------------------
  alpha Z        PSCENC =         0.24383549
  Ewald energy   TEWEN  =       128.96445969
  -Hartree energ DENC   =      -284.31293684
  -exchange      EXHF   =         0.00000000
  -V(xc)+E(xc)   XCENC  =        24.77359598
  PAW double counting   =       473.81400563     -474.60160391
  entropy T*S    EENTRO =        -0.00000000
  eigenvalues    EBANDS =       -89.91239470
  atomic energy  EATOM  =       197.04175453
  Solvation  Ediel_sol  =         0.00000000
  ---------------------------------------------------
  free energy    TOTEN  =       -23.98928411 eV

  energy without entropy =      -23.98928411  energy(sigma->0) =      -23.98928411


--------------------------------------------------------------------------------------------------------




--------------------------------------- Iteration      1(  12)  ---------------------------------------


    POTLOK:  cpu time    0.1368: real time    0.1419
    SETDIJ:  cpu time    0.0019: real time    0.0019
    EDDIAG:  cpu time    0.0423: real time    0.0436
  RMM-DIIS:  cpu time    0.1590: real time    0.1633
    ORTHCH:  cpu time    0.0017: real time    0.0024
       DOS:  cpu time    0.0002: real time    0.0002
    CHARGE:  cpu time    0.0223: real time    0.0224
    MIXING:  cpu time    0.0050: real time    0.0050
    --------------------------------------------
      LOOP:  cpu time    0.3691: real time    0.3806

 eigenvalue-minimisations  :    64
 total energy-change (2. order) :-0.9385843E-02  (-0.3292437E-03)
 number of electron       8.0000000 magnetization 
 augmentation part        0.1861856 magnetization 

 Broyden mixing:
  rms(total) = 0.11767E-01    rms(broyden)= 0.11766E-01
  rms(prec ) = 0.15375E-01
  weight for this iteration     100.00

 eigenvalues of (default mixing * dielectric matrix)
  average eigenvalue GAMMA=   2.0042
  4.6918  2.8841  2.4221  1.2214  0.9984  0.9984  0.8131

 Free energy of the ion-electron system (eV)
  ---------------------------------------------------
  alpha Z        PSCENC =         0.24383549
  Ewald energy   TEWEN  =       128.96445969
  -Hartree energ DENC   =      -284.52562592
  -exchange      EXHF   =         0.00000000
  -V(xc)+E(xc)   XCENC  =        24.76610332
  PAW double counting   =       470.68018332     -471.46668544
  entropy T*S    EENTRO =        -0.00000000
  eigenvalues    EBANDS =       -89.70269495
  atomic energy  EATOM  =       197.04175453
  Solvation  Ediel_sol  =         0.00000000
  ---------------------------------------------------
  free energy    TOTEN  =       -23.99866995 eV

  energy without entropy =      -23.99866995  energy(sigma->0) =      -23.99866995


--------------------------------------------------------------------------------------------------------




--------------------------------------- Iteration      1(  13)  ---------------------------------------


    POTLOK:  cpu time    0.1398: real time    0.1447
    SETDIJ:  cpu time    0.0018: real time    0.0018
    EDDIAG:  cpu time    0.0441: real time    0.0448
  RMM-DIIS:  cpu time    0.1614: real time    0.1627
    ORTHCH:  cpu time    0.0014: real time    0.0019
       DOS:  cpu time    0.0002: real time    0.0002
    CHARGE:  cpu time    0.0224: real time    0.0225
    MIXING:  cpu time    0.0049: real time    0.0049
    --------------------------------------------
      LOOP:  cpu time    0.3760: real time    0.3835

 eigenvalue-minimisations  :    64
 total energy-change (2. order) :-0.5886357E-03  (-0.9607434E-04)
 number of electron       8.0000000 magnetization 
 augmentation part        0.1859475 magnetization 

 Broyden mixing:
  rms(total) = 0.44543E-02    rms(broyden)= 0.44540E-02
  rms(prec ) = 0.62051E-02
  weight for this iteration     100.00

 eigenvalues of (default mixing * dielectric matrix)
  average eigenvalue GAMMA=   2.3671
  5.9734  3.9048  2.4704  2.2445  1.2315  1.2315  0.9888  0.8923

 Free energy of the ion-electron system (eV)
  ---------------------------------------------------
  alpha Z        PSCENC =         0.24383549
  Ewald energy   TEWEN  =       128.96445969
  -Hartree energ DENC   =      -284.70953767
  -exchange      EXHF   =         0.00000000
  -V(xc)+E(xc)   XCENC  =        24.77130091
  PAW double counting   =       470.49606459     -471.28491499
  entropy T*S    EENTRO =        -0.00000000
  eigenvalues    EBANDS =       -89.52222115
  atomic energy  EATOM  =       197.04175453
  Solvation  Ediel_sol  =         0.00000000
  ---------------------------------------------------
  free energy    TOTEN  =       -23.99925859 eV

  energy without entropy =      -23.99925859  energy(sigma->0) =      -23.99925859


--------------------------------------------------------------------------------------------------------




--------------------------------------- Iteration      1(  14)  ---------------------------------------


    POTLOK:  cpu time    0.1390: real time    0.1394
    SETDIJ:  cpu time    0.0018: real time    0.0018
    EDDIAG:  cpu time    0.0431: real time    0.0432
  RMM-DIIS:  cpu time    0.1626: real time    0.1641
    ORTHCH:  cpu time    0.0015: real time    0.0015
       DOS:  cpu time    0.0002: real time    0.0002
    CHARGE:  cpu time    0.0224: real time    0.0224
    MIXING:  cpu time    0.0054: real time    0.0054
    --------------------------------------------
      LOOP:  cpu time    0.3760: real time    0.3781

 eigenvalue-minimisations  :    64
 total energy-change (2. order) :-0.2815081E-02  (-0.1108789E-03)
 number of electron       8.0000000 magnetization 
 augmentation part        0.1858396 magnetization 

 Broyden mixing:
  rms(total) = 0.22717E-02    rms(broyden)= 0.22699E-02
  rms(prec ) = 0.30793E-02
  weight for this iteration     100.00

 eigenvalues of (default mixing * dielectric matrix)
  average eigenvalue GAMMA=   2.3669
  6.4315  3.8642  2.6093  2.3528  1.6601  1.2429  1.2429  0.9944  0.9038

 Free energy of the ion-electron system (eV)
  ---------------------------------------------------
  alpha Z        PSCENC =         0.24383549
  Ewald energy   TEWEN  =       128.96445969
  -Hartree energ DENC   =      -284.70885060
  -exchange      EXHF   =         0.00000000
  -V(xc)+E(xc)   XCENC  =        24.76189123
  PAW double counting   =       469.91842160     -470.70844425
  entropy T*S    EENTRO =        -0.00000000
  eigenvalues    EBANDS =       -89.51514136
  atomic energy  EATOM  =       197.04175453
  Solvation  Ediel_sol  =         0.00000000
  ---------------------------------------------------
  free energy    TOTEN  =       -24.00207367 eV

  energy without entropy =      -24.00207367  energy(sigma->0) =      -24.00207367


--------------------------------------------------------------------------------------------------------




--------------------------------------- Iteration      1(  15)  ---------------------------------------


    POTLOK:  cpu time    0.1398: real time    0.1404
    SETDIJ:  cpu time    0.0017: real time    0.0017
    EDDIAG:  cpu time    0.0434: real time    0.0435
  RMM-DIIS:  cpu time    0.1635: real time    0.1649
    ORTHCH:  cpu time    0.0028: real time    0.0028
       DOS:  cpu time    0.0002: real time    0.0002
    CHARGE:  cpu time    0.0224: real time    0.0227
    MIXING:  cpu time    0.0053: real time    0.0053
    --------------------------------------------
      LOOP:  cpu time    0.3791: real time    0.3816

 eigenvalue-minimisations  :    64
 total energy-change (2. order) :-0.3272782E-03  (-0.4539138E-05)
 number of electron       8.0000000 magnetization 
 augmentation part        0.1858164 magnetization 

 Broyden mixing:
  rms(total) = 0.10508E-02    rms(broyden)= 0.10506E-02
  rms(prec ) = 0.14333E-02
  weight for this iteration     100.00

 eigenvalues of (default mixing * dielectric matrix)
  average eigenvalue GAMMA=   2.5094
  7.4715  4.7816  2.7443  2.6095  2.0328  1.2734  1.2734  1.0040  1.0040  0.8988

 Free energy of the ion-electron system (eV)
  ---------------------------------------------------
  alpha Z        PSCENC =         0.24383549
  Ewald energy   TEWEN  =       128.96445969
  -Hartree energ DENC   =      -284.69447127
  -exchange      EXHF   =         0.00000000
  -V(xc)+E(xc)   XCENC  =        24.76152116
  PAW double counting   =       469.98388643     -470.77329481
  entropy T*S    EENTRO =        -0.00000000
  eigenvalues    EBANDS =       -89.53009217
  atomic energy  EATOM  =       197.04175453
  Solvation  Ediel_sol  =         0.00000000
  ---------------------------------------------------
  free energy    TOTEN  =       -24.00240095 eV

  energy without entropy =      -24.00240095  energy(sigma->0) =      -24.00240095


--------------------------------------------------------------------------------------------------------




--------------------------------------- Iteration      1(  16)  ---------------------------------------


    POTLOK:  cpu time    0.1390: real time    0.1418
    SETDIJ:  cpu time    0.0018: real time    0.0018
    EDDIAG:  cpu time    0.0459: real time    0.0466
  RMM-DIIS:  cpu time    0.1700: real time    0.1720
    ORTHCH:  cpu time    0.0018: real time    0.0018
       DOS:  cpu time    0.0002: real time    0.0002
    CHARGE:  cpu time    0.0223: real time    0.0226
    MIXING:  cpu time    0.0057: real time    0.0057
    --------------------------------------------
      LOOP:  cpu time    0.3867: real time    0.3925

 eigenvalue-minimisations  :    64
 total energy-change (2. order) :-0.1891236E-03  (-0.3444815E-05)
 number of electron       8.0000000 magnetization 
 augmentation part        0.1858330 magnetization 

 Broyden mixing:
  rms(total) = 0.21673E-03    rms(broyden)= 0.21652E-03
  rms(prec ) = 0.36510E-03
  weight for this iteration     100.00

 eigenvalues of (default mixing * dielectric matrix)
  average eigenvalue GAMMA=   2.5405
  7.7340  4.8284  3.3914  2.3626  2.1441  2.1441  1.2364  1.2364  1.0136  0.9272
  0.9272

 Free energy of the ion-electron system (eV)
  ---------------------------------------------------
  alpha Z        PSCENC =         0.24383549
  Ewald energy   TEWEN  =       128.96445969
  -Hartree energ DENC   =      -284.67233906
  -exchange      EXHF   =         0.00000000
  -V(xc)+E(xc)   XCENC  =        24.76063214
  PAW double counting   =       469.94201211     -470.73117986
  entropy T*S    EENTRO =        -0.00000000
  eigenvalues    EBANDS =       -89.55176511
  atomic energy  EATOM  =       197.04175453
  Solvation  Ediel_sol  =         0.00000000
  ---------------------------------------------------
  free energy    TOTEN  =       -24.00259007 eV

  energy without entropy =      -24.00259007  energy(sigma->0) =      -24.00259007


--------------------------------------------------------------------------------------------------------




--------------------------------------- Iteration      1(  17)  ---------------------------------------


    POTLOK:  cpu time    0.1425: real time    0.1445
    SETDIJ:  cpu time    0.0018: real time    0.0018
    EDDIAG:  cpu time    0.0426: real time    0.0431
  RMM-DIIS:  cpu time    0.1605: real time    0.1632
    ORTHCH:  cpu time    0.0015: real time    0.0015
       DOS:  cpu time    0.0002: real time    0.0002
    CHARGE:  cpu time    0.0221: real time    0.0224
    MIXING:  cpu time    0.0055: real time    0.0055
    --------------------------------------------
      LOOP:  cpu time    0.3767: real time    0.3822

 eigenvalue-minimisations  :    64
 total energy-change (2. order) :-0.5161599E-04  (-0.1469982E-05)
 number of electron       8.0000000 magnetization 
 augmentation part        0.1858088 magnetization 

 Broyden mixing:
  rms(total) = 0.63166E-03    rms(broyden)= 0.63164E-03
  rms(prec ) = 0.86164E-03
  weight for this iteration     100.00

 eigenvalues of (default mixing * dielectric matrix)
  average eigenvalue GAMMA=   2.5716
  8.3838  5.2712  3.8525  2.5086  2.5086  1.9045  1.2807  1.2807  1.0610  0.9889
  0.9094  0.9094

 Free energy of the ion-electron system (eV)
  ---------------------------------------------------
  alpha Z        PSCENC =         0.24383549
  Ewald energy   TEWEN  =       128.96445969
  -Hartree energ DENC   =      -284.70778216
  -exchange      EXHF   =         0.00000000
  -V(xc)+E(xc)   XCENC  =        24.76240383
  PAW double counting   =       469.93405754     -470.72344042
  entropy T*S    EENTRO =        -0.00000000
  eigenvalues    EBANDS =       -89.51793020
  atomic energy  EATOM  =       197.04175453
  Solvation  Ediel_sol  =         0.00000000
  ---------------------------------------------------
  free energy    TOTEN  =       -24.00264169 eV

  energy without entropy =      -24.00264169  energy(sigma->0) =      -24.00264169


--------------------------------------------------------------------------------------------------------




--------------------------------------- Iteration      1(  18)  ---------------------------------------


    POTLOK:  cpu time    0.1430: real time    0.1446
    SETDIJ:  cpu time    0.0016: real time    0.0016
    EDDIAG:  cpu time    0.0458: real time    0.0463
  RMM-DIIS:  cpu time    0.1609: real time    0.1629
    ORTHCH:  cpu time    0.0016: real time    0.0018
       DOS:  cpu time    0.0002: real time    0.0002
    CHARGE:  cpu time    0.0224: real time    0.0226
    MIXING:  cpu time    0.0057: real time    0.0057
    --------------------------------------------
      LOOP:  cpu time    0.3812: real time    0.3858

 eigenvalue-minimisations  :    64
 total energy-change (2. order) :-0.4183523E-05  (-0.8921081E-06)
 number of electron       8.0000000 magnetization 
 augmentation part        0.1858288 magnetization 

 Broyden mixing:
  rms(total) = 0.12392E-03    rms(broyden)= 0.12371E-03
  rms(prec ) = 0.16180E-03
  weight for this iteration     100.00

 eigenvalues of (default mixing * dielectric matrix)
  average eigenvalue GAMMA=   2.6421
  8.4690  5.5045  3.9637  3.2248  2.4321  2.4321  1.9225  1.2575  1.2575  0.9086
  0.9744  0.9744  1.0264

 Free energy of the ion-electron system (eV)
  ---------------------------------------------------
  alpha Z        PSCENC =         0.24383549
  Ewald energy   TEWEN  =       128.96445969
  -Hartree energ DENC   =      -284.68604865
  -exchange      EXHF   =         0.00000000
  -V(xc)+E(xc)   XCENC  =        24.76142927
  PAW double counting   =       469.94416895     -470.73333582
  entropy T*S    EENTRO =        -0.00000000
  eigenvalues    EBANDS =       -89.53890932
  atomic energy  EATOM  =       197.04175453
  Solvation  Ediel_sol  =         0.00000000
  ---------------------------------------------------
  free energy    TOTEN  =       -24.00264587 eV

  energy without entropy =      -24.00264587  energy(sigma->0) =      -24.00264587


--------------------------------------------------------------------------------------------------------




--------------------------------------- Iteration      1(  19)  ---------------------------------------


    POTLOK:  cpu time    0.1429: real time    0.1456
    SETDIJ:  cpu time    0.0017: real time    0.0017
    EDDIAG:  cpu time    0.0433: real time    0.0438
  RMM-DIIS:  cpu time    0.1279: real time    0.1297
    ORTHCH:  cpu time    0.0015: real time    0.0015
       DOS:  cpu time    0.0002: real time    0.0002
    CHARGE:  cpu time    0.0220: real time    0.0222
    MIXING:  cpu time    0.0061: real time    0.0061
    --------------------------------------------
      LOOP:  cpu time    0.3455: real time    0.3508

 eigenvalue-minimisations  :    48
 total energy-change (2. order) :-0.4271319E-05  (-0.3272857E-07)
 number of electron       8.0000000 magnetization 
 augmentation part        0.1858314 magnetization 

 Broyden mixing:
  rms(total) = 0.81741E-04    rms(broyden)= 0.81709E-04
  rms(prec ) = 0.11435E-03
  weight for this iteration     100.00

 eigenvalues of (default mixing * dielectric matrix)
  average eigenvalue GAMMA=   2.5566
  8.5196  5.5917  4.0064  3.5621  2.4252  2.4252  1.9891  1.2567  1.2567  1.0309
  0.9302  0.9302  0.9339  0.9339

 Free energy of the ion-electron system (eV)
  ---------------------------------------------------
  alpha Z        PSCENC =         0.24383549
  Ewald energy   TEWEN  =       128.96445969
  -Hartree energ DENC   =      -284.68375607
  -exchange      EXHF   =         0.00000000
  -V(xc)+E(xc)   XCENC  =        24.76116209
  PAW double counting   =       469.92662114     -470.71580457
  entropy T*S    EENTRO =        -0.00000000
  eigenvalues    EBANDS =       -89.54092245
  atomic energy  EATOM  =       197.04175453
  Solvation  Ediel_sol  =         0.00000000
  ---------------------------------------------------
  free energy    TOTEN  =       -24.00265014 eV

  energy without entropy =      -24.00265014  energy(sigma->0) =      -24.00265014


--------------------------------------------------------------------------------------------------------




--------------------------------------- Iteration      1(  20)  ---------------------------------------


    POTLOK:  cpu time    0.1440: real time    0.1457
    SETDIJ:  cpu time    0.0025: real time    0.0025
    EDDIAG:  cpu time    0.0424: real time    0.0435
  RMM-DIIS:  cpu time    0.1286: real time    0.1302
    ORTHCH:  cpu time    0.0016: real time    0.0017
       DOS:  cpu time    0.0002: real time    0.0002
    --------------------------------------------
      LOOP:  cpu time    0.3193: real time    0.3237

 eigenvalue-minimisations  :    48
 total energy-change (2. order) :-0.6575672E-06  (-0.1360571E-07)
 number of electron       8.0000000 magnetization 
 augmentation part        0.1858314 magnetization 

 Free energy of the ion-electron system (eV)
  ---------------------------------------------------
  alpha Z        PSCENC =         0.24383549
  Ewald energy   TEWEN  =       128.96445969
  -Hartree energ DENC   =      -284.68522870
  -exchange      EXHF   =         0.00000000
  -V(xc)+E(xc)   XCENC  =        24.76119490
  PAW double counting   =       469.92416607     -470.71338132
  entropy T*S    EENTRO =        -0.00000000
  eigenvalues    EBANDS =       -89.53945147
  atomic energy  EATOM  =       197.04175453
  Solvation  Ediel_sol  =         0.00000000
  ---------------------------------------------------
  free energy    TOTEN  =       -24.00265080 eV

  energy without entropy =      -24.00265080  energy(sigma->0) =      -24.00265080


--------------------------------------------------------------------------------------------------------




 average (electrostatic) potential at core
  the test charge radii are     0.5201  0.6991
  (the norm of the test charge is              1.0000)
       1 -41.4713       2 -41.7305       3 -41.3705       4 -41.4597       5 -57.9514
 
 
 
 E-fermi :  -8.2385     XC(G=0):  -0.7045     alpha+bet : -0.2120


 k-point     1 :       0.2500    0.2500    0.2500
  band No.  band energies     occupation 
      1     -16.9001      2.00000
      2      -9.3771      2.00000
      3      -9.2703      2.00000
      4      -9.2222      2.00000
      5      -0.3124      0.00000
      6       0.5596      0.00000
      7       0.6729      0.00000
      8       0.7058      0.00000

 k-point     2 :      -0.2500    0.2500    0.2500
  band No.  band energies     occupation 
      1     -16.9001      2.00000
      2      -9.3772      2.00000
      3      -9.2704      2.00000
      4      -9.2223      2.00000
      5      -0.3128      0.00000
      6       0.5553      0.00000
      7       0.6692      0.00000
      8       0.7112      0.00000

 k-point     3 :       0.2500   -0.2500    0.2500
  band No.  band energies     occupation 
      1     -16.9000      2.00000
      2      -9.3772      2.00000
      3      -9.2703      2.00000
      4      -9.2222      2.00000
      5      -0.3134      0.00000
      6       0.5578      0.00000
      7       0.6751      0.00000
      8       0.7092      0.00000

 k-point     4 :      -0.2500   -0.2500    0.2500
  band No.  band energies     occupation 
      1     -16.9001      2.00000
      2      -9.3771      2.00000
      3      -9.2702      2.00000
      4      -9.2222      2.00000
      5      -0.3137      0.00000
      6       0.5605      0.00000
      7       0.6787      0.00000
      8       0.7077      0.00000


--------------------------------------------------------------------------------------------------------


 soft charge-density along one line, spin component           1
         0         1         2         3         4         5         6         7         8         9
 total charge-density along one line
 
 pseudopotential strength for first ion, spin component:           1
 -2.341  -4.033  -0.001  -0.001   0.001
 -4.033  -6.864  -0.003  -0.004   0.002
 -0.001  -0.003  -0.337   0.002  -0.001
 -0.001  -0.004   0.002  -0.336  -0.001
  0.001   0.002  -0.001  -0.001  -0.339
 total augmentation occupancy for first ion, spin component:           1
  3.537  -0.637   0.240   0.328  -0.132
 -0.637   0.129  -0.044  -0.061   0.025
  0.240  -0.044   0.022   0.019  -0.008
  0.328  -0.061   0.019   0.034  -0.010
 -0.132   0.025  -0.008  -0.010   0.013


------------------------ aborting loop because EDIFF is reached ----------------------------------------


    CHARGE:  cpu time    0.0224: real time    0.0227
    FORLOC:  cpu time    0.0104: real time    0.0105
    FORNL :  cpu time    0.0175: real time    0.0177
    STRESS:  cpu time    0.1411: real time    0.1430
    FORCOR:  cpu time    0.1414: real time    0.1430
    FORHAR:  cpu time    0.0431: real time    0.0436
    MIXING:  cpu time    0.0058: real time    0.0058
    OFIELD:  cpu time    0.0000: real time    0.0000

  FORCE on cell =-STRESS in cart. coord.  units (eV):
  Direction    XX          YY          ZZ          XY          YZ          ZX
  --------------------------------------------------------------------------------------
  Alpha Z     0.24384     0.24384     0.24384
  Ewald      46.12969    40.96633    41.86841    -0.93241    -0.48499    -0.34223
  Hartree    97.60691    92.27633    94.80416    -0.01532    -0.21648    -0.15842
  E(xc)     -27.24583   -27.21463   -27.23494    -0.00059    -0.00258    -0.00267
  Local    -202.05931  -192.04447  -195.74949     0.60507     0.64788     0.48164
  n-local   -16.05514   -15.85972   -15.91949     0.04418    -0.00354    -0.00924
  augment     0.10892     0.11702     0.11818     0.00342     0.00031    -0.00012
  Kinetic   102.02505   100.38620   101.41958    -0.01478     0.12306     0.13542
  Fock        0.00000     0.00000     0.00000     0.00000     0.00000     0.00000
  -------------------------------------------------------------------------------------
  Total       0.75414    -1.12911    -0.44975    -0.31043     0.06365     0.10438
  in kB       1.21616    -1.82086    -0.72530    -0.50061     0.10265     0.16833
  external pressure =       -0.44 kB  Pullay stress =        0.00 kB

  kinetic pressure (ideal gas correction) =      0.00 kB
  total pressure  =     -0.44 kB
  Total+kin.     1.216      -1.821      -0.725      -0.501       0.103       0.168

 VOLUME and BASIS-vectors are now :
 -----------------------------------------------------------------------------
  energy-cutoff  :      400.00
  volume of cell :      993.50
      direct lattice vectors                 reciprocal lattice vectors
     9.703409344  0.000000000  0.000000000     0.103056561 -0.000214621  0.000183809
     0.021377035 10.264789430  0.000000000     0.000000000  0.097420411  0.000513858
    -0.017899940 -0.052612237  9.974563119     0.000000000  0.000000000  0.100255017

  length of vectors
     9.703409344 10.264811689  9.974717934     0.103056949  0.097421766  0.100255017


 FORCES acting on ions
    electron-ion (+dipol)            ewald-force                    non-local-force                 convergence-correction
 -----------------------------------------------------------------------------------------------
   -.165E+02 0.296E+02 0.405E+02   0.182E+02 -.325E+02 -.447E+02   -.168E+01 0.308E+01 0.418E+01   0.125E-04 -.844E-04 -.930E-04
   0.537E+02 -.661E+01 0.330E+01   -.607E+02 0.745E+01 -.375E+01   0.591E+01 -.725E+00 0.358E+00   -.111E-03 0.536E-05 -.796E-05
   -.224E+02 -.470E+02 0.125E+01   0.245E+02 0.512E+02 -.134E+01   -.222E+01 -.474E+01 0.135E+00   0.336E-04 0.129E-03 -.335E-05
   -.113E+02 0.253E+02 -.448E+02   0.126E+02 -.277E+02 0.494E+02   -.114E+01 0.263E+01 -.462E+01   0.352E-05 -.725E-04 0.101E-03
   -.461E+01 -.145E+01 -.320E+00   0.542E+01 0.162E+01 0.376E+00   0.282E+00 -.451E-02 0.313E-01   -.142E-03 -.541E-04 -.918E-05
 -----------------------------------------------------------------------------------------------
   -.115E+01 -.242E+00 -.916E-01   -.888E-14 -.355E-14 0.711E-14   0.115E+01 0.241E+00 0.916E-01   -.204E-03 -.764E-04 -.129E-04
 
 
 POSITION                                       TOTAL-FORCE (eV/Angst)
 -----------------------------------------------------------------------------------
      5.22531      4.15605      3.59610         0.044219      0.131583      0.013747
      3.82838      4.90058      4.37542        -1.105214      0.111848     -0.086955
      5.36329      5.77904      4.41310        -0.106203     -0.589428      0.049211
      5.11920      4.24381      5.37708         0.072778      0.176531     -0.063219
      4.88472      4.77225      4.44022         1.093799      0.169080      0.087248
 -----------------------------------------------------------------------------------
    total drift:                               -0.000621     -0.000386      0.000031


--------------------------------------------------------------------------------------------------------



  FREE ENERGIE OF THE ION-ELECTRON SYSTEM (eV)
  ---------------------------------------------------
  free  energy   TOTEN  =       -24.00265080 eV

  energy  without entropy=      -24.00265080  energy(sigma->0) =      -24.00265080
 


--------------------------------------------------------------------------------------------------------


    POTLOK:  cpu time    0.1467: real time    0.1484


--------------------------------------------------------------------------------------------------------


 stress matrix after NEB project (eV)
      0.75414     -0.31043      0.10438
     -0.31043     -1.12911      0.06365
      0.10438      0.06365     -0.44975
  FORCES: max atom, RMS     1.114257    0.760948
  FORCE total and by dimension    1.701530    1.105214
  Stress total and by dimension    1.506154    1.129105
           RANDOM_SEED =         581343751                0                0
           RANDOM_SEED =         581343751               30                0
   IONSTEP:  cpu time    0.0028: real time    0.0058

  ENERGY OF THE ELECTRON-ION-THERMOSTAT SYSTEM (eV)
  ---------------------------------------------------
% ion-electron   TOTEN  =       -24.002651  see above
  kinetic energy EKIN   =         0.000529
  kin. lattice  EKIN_LAT=         0.000000  (temperature    1.02 K)
  nose potential ES     =         0.000000
  nose kinetic   EPS    =         0.000000
  ---------------------------------------------------
  total energy   ETOTAL =       -24.002122 eV

  maximum distance moved by ions :      0.28E-03

    WAVPRE:  cpu time    0.0380: real time    0.0386
    FEWALD:  cpu time    0.0006: real time    0.0006
    ORTHCH:  cpu time    0.0080: real time    0.0081
     LOOP+:  cpu time    7.3654: real time    7.5319


--------------------------------------- Iteration      2(   1)  ---------------------------------------


    POTLOK:  cpu time    0.1466: real time    0.1484
    SETDIJ:  cpu time    0.0017: real time    0.0017
     EDDAV:  cpu time    0.1491: real time    0.1514
       DOS:  cpu time    0.0002: real time    0.0002
    CHARGE:  cpu time    0.0219: real time    0.0223
    MIXING:  cpu time    0.0044: real time    0.0053
    --------------------------------------------
      LOOP:  cpu time    0.3240: real time    0.3293

 eigenvalue-minimisations  :    64
 total energy-change (2. order) :-0.4063240E-02  (-0.4578821E-03)
 number of electron       8.0000000 magnetization 
 augmentation part        0.1857150 magnetization 

 Broyden mixing:
  rms(total) = 0.31882E-02    rms(broyden)= 0.31854E-02
  rms(prec ) = 0.36767E-02
  weight for this iteration     100.00

 Free energy of the ion-electron system (eV)
  ---------------------------------------------------
  alpha Z        PSCENC =         0.24383549
  Ewald energy   TEWEN  =       128.90521568
  -Hartree energ DENC   =      -284.65828347
  -exchange      EXHF   =         0.00000000
  -V(xc)+E(xc)   XCENC  =        24.75980311
  PAW double counting   =       469.92365121     -470.71286365
  entropy T*S    EENTRO =        -0.00000000
  eigenvalues    EBANDS =       -89.50982629
  atomic energy  EATOM  =       197.04175453
  Solvation  Ediel_sol  =         0.00000000
  ---------------------------------------------------
  free energy    TOTEN  =       -24.00671338 eV

  energy without entropy =      -24.00671338  energy(sigma->0) =      -24.00671338


--------------------------------------------------------------------------------------------------------




--------------------------------------- Iteration      2(   2)  ---------------------------------------


    POTLOK:  cpu time    0.1470: real time    0.1486
    SETDIJ:  cpu time    0.0019: real time    0.0019
    EDDIAG:  cpu time    0.0429: real time    0.0435
  RMM-DIIS:  cpu time    0.1622: real time    0.1637
    ORTHCH:  cpu time    0.0014: real time    0.0014
       DOS:  cpu time    0.0002: real time    0.0002
    CHARGE:  cpu time    0.0225: real time    0.0225
    MIXING:  cpu time    0.0042: real time    0.0042
    --------------------------------------------
      LOOP:  cpu time    0.3824: real time    0.3861

 eigenvalue-minimisations  :    64
 total energy-change (2. order) : 0.2335902E-05  (-0.1313156E-04)
 number of electron       8.0000000 magnetization 
 augmentation part        0.1857360 magnetization 

 Broyden mixing:
  rms(total) = 0.19268E-02    rms(broyden)= 0.19257E-02
  rms(prec ) = 0.22232E-02
  weight for this iteration     100.00

 eigenvalues of (default mixing * dielectric matrix)
  average eigenvalue GAMMA=   1.7195
  1.7195

 Free energy of the ion-electron system (eV)
  ---------------------------------------------------
  alpha Z        PSCENC =         0.24383549
  Ewald energy   TEWEN  =       128.90521568
  -Hartree energ DENC   =      -284.64407383
  -exchange      EXHF   =         0.00000000
  -V(xc)+E(xc)   XCENC  =        24.75899040
  PAW double counting   =       469.53977286     -470.32880234
  entropy T*S    EENTRO =        -0.00000000
  eigenvalues    EBANDS =       -89.52340384
  atomic energy  EATOM  =       197.04175453
  Solvation  Ediel_sol  =         0.00000000
  ---------------------------------------------------
  free energy    TOTEN  =       -24.00671104 eV

  energy without entropy =      -24.00671104  energy(sigma->0) =      -24.00671104


--------------------------------------------------------------------------------------------------------




--------------------------------------- Iteration      2(   3)  ---------------------------------------


    POTLOK:  cpu time    0.1460: real time    0.1465
    SETDIJ:  cpu time    0.0017: real time    0.0017
    EDDIAG:  cpu time    0.0433: real time    0.0434
  RMM-DIIS:  cpu time    0.1616: real time    0.1621
    ORTHCH:  cpu time    0.0019: real time    0.0019
       DOS:  cpu time    0.0002: real time    0.0002
    CHARGE:  cpu time    0.0223: real time    0.0223
    MIXING:  cpu time    0.0043: real time    0.0043
    --------------------------------------------
      LOOP:  cpu time    0.3812: real time    0.3825

 eigenvalue-minimisations  :    64
 total energy-change (2. order) : 0.2765574E-05  (-0.1859576E-05)
 number of electron       8.0000000 magnetization 
 augmentation part        0.1857520 magnetization 

 Broyden mixing:
  rms(total) = 0.50205E-03    rms(broyden)= 0.50126E-03
  rms(prec ) = 0.58732E-03
  weight for this iteration     100.00

 eigenvalues of (default mixing * dielectric matrix)
  average eigenvalue GAMMA=   1.6440
  1.0768  2.2113

 Free energy of the ion-electron system (eV)
  ---------------------------------------------------
  alpha Z        PSCENC =         0.24383549
  Ewald energy   TEWEN  =       128.90521568
  -Hartree energ DENC   =      -284.63609115
  -exchange      EXHF   =         0.00000000
  -V(xc)+E(xc)   XCENC  =        24.75852002
  PAW double counting   =       469.40396085     -470.19287249
  entropy T*S    EENTRO =        -0.00000000
  eigenvalues    EBANDS =       -89.53103122
  atomic energy  EATOM  =       197.04175453
  Solvation  Ediel_sol  =         0.00000000
  ---------------------------------------------------
  free energy    TOTEN  =       -24.00670828 eV

  energy without entropy =      -24.00670828  energy(sigma->0) =      -24.00670828


--------------------------------------------------------------------------------------------------------




--------------------------------------- Iteration      2(   4)  ---------------------------------------


    POTLOK:  cpu time    0.1465: real time    0.1468
    SETDIJ:  cpu time    0.0016: real time    0.0017
    EDDIAG:  cpu time    0.0429: real time    0.0433
  RMM-DIIS:  cpu time    0.1284: real time    0.1301
    ORTHCH:  cpu time    0.0014: real time    0.0014
       DOS:  cpu time    0.0002: real time    0.0002
    --------------------------------------------
      LOOP:  cpu time    0.3210: real time    0.3235

 eigenvalue-minimisations  :    48
 total energy-change (2. order) :-0.1280179E-07  (-0.7448318E-07)
 number of electron       8.0000000 magnetization 
 augmentation part        0.1857520 magnetization 

 Free energy of the ion-electron system (eV)
  ---------------------------------------------------
  alpha Z        PSCENC =         0.24383549
  Ewald energy   TEWEN  =       128.90521568
  -Hartree energ DENC   =      -284.63804237
  -exchange      EXHF   =         0.00000000
  -V(xc)+E(xc)   XCENC  =        24.75859186
  PAW double counting   =       469.41880658     -470.20773869
  entropy T*S    EENTRO =        -0.00000000
  eigenvalues    EBANDS =       -89.52913139
  atomic energy  EATOM  =       197.04175453
  Solvation  Ediel_sol  =         0.00000000
  ---------------------------------------------------
  free energy    TOTEN  =       -24.00670829 eV

  energy without entropy =      -24.00670829  energy(sigma->0) =      -24.00670829


--------------------------------------------------------------------------------------------------------




 average (electrostatic) potential at core
  the test charge radii are     0.5201  0.6991
  (the norm of the test charge is              1.0000)
       1 -41.4727       2 -41.7056       3 -41.3804       4 -41.4621       5 -57.9527
 
 
 
 E-fermi :  -8.3062     XC(G=0):  -0.6928     alpha+bet : -0.2120


 k-point     1 :       0.2500    0.2500    0.2500
  band No.  band energies     occupation 
      1     -16.8974      2.00000
      2      -9.3723      2.00000
      3      -9.2707      2.00000
      4      -9.2241      2.00000
      5      -0.3089      0.00000
      6       0.5741      0.00000
      7       0.6794      0.00000
      8       0.7121      0.00000

 k-point     2 :      -0.2500    0.2500    0.2500
  band No.  band energies     occupation 
      1     -16.8974      2.00000
      2      -9.3724      2.00000
      3      -9.2707      2.00000
      4      -9.2241      2.00000
      5      -0.3091      0.00000
      6       0.5694      0.00000
      7       0.6762      0.00000
      8       0.7171      0.00000

 k-point     3 :       0.2500   -0.2500    0.2500
  band No.  band energies     occupation 
      1     -16.8974      2.00000
      2      -9.3724      2.00000
      3      -9.2707      2.00000
      4      -9.2240      2.00000
      5      -0.3097      0.00000
      6       0.5715      0.00000
      7       0.6817      0.00000
      8       0.7157      0.00000

 k-point     4 :      -0.2500   -0.2500    0.2500
  band No.  band energies     occupation 
      1     -16.8974      2.00000
      2      -9.3723      2.00000
      3      -9.2706      2.00000
      4      -9.2241      2.00000
      5      -0.3101      0.00000
      6       0.5754      0.00000
      7       0.6847      0.00000
      8       0.7139      0.00000


--------------------------------------------------------------------------------------------------------


 soft charge-density along one line, spin component           1
         0         1         2         3         4         5         6         7         8         9
 total charge-density along one line
 
 pseudopotential strength for first ion, spin component:           1
 -2.341  -4.033  -0.001  -0.001   0.001
 -4.033  -6.864  -0.003  -0.004   0.002
 -0.001  -0.003  -0.337   0.002  -0.001
 -0.001  -0.004   0.002  -0.336  -0.001
  0.001   0.002  -0.001  -0.001  -0.339
 total augmentation occupancy for first ion, spin component:           1
  3.538  -0.637   0.240   0.328  -0.132
 -0.637   0.129  -0.044  -0.061   0.025
  0.240  -0.044   0.022   0.019  -0.008
  0.328  -0.061   0.019   0.034  -0.010
 -0.132   0.025  -0.008  -0.010   0.013


------------------------ aborting loop because EDIFF is reached ----------------------------------------


    CHARGE:  cpu time    0.0225: real time    0.0227
    FORLOC:  cpu time    0.0105: real time    0.0105
    FORNL :  cpu time    0.0174: real time    0.0175
    STRESS:  cpu time    0.1415: real time    0.1433
    FORCOR:  cpu time    0.1444: real time    0.1451
    FORHAR:  cpu time    0.0458: real time    0.0460
    MIXING:  cpu time    0.0056: real time    0.0057
    OFIELD:  cpu time    0.0000: real time    0.0000

  FORCE on cell =-STRESS in cart. coord.  units (eV):
  Direction    XX          YY          ZZ          XY          YZ          ZX
  --------------------------------------------------------------------------------------
  Alpha Z     0.24384     0.24384     0.24384
  Ewald      46.02328    40.98165    41.90026    -0.87510    -0.48044    -0.34409
  Hartree    97.63181    92.22540    94.78412    -0.02108    -0.21352    -0.15421
  E(xc)     -27.24227   -27.21235   -27.23215    -0.00071    -0.00252    -0.00259
  Local    -202.04701  -191.97495  -195.74196     0.57953     0.63992     0.47520
  n-local   -16.03961   -15.85925   -15.91546     0.04088    -0.00332    -0.00851
  augment     0.10985     0.11668     0.11802     0.00315     0.00031    -0.00006
  Kinetic   101.97110   100.39812   101.40507    -0.00736     0.12052     0.13116
  Fock        0.00000     0.00000     0.00000     0.00000     0.00000     0.00000
  -------------------------------------------------------------------------------------
  Total       0.65100    -1.08086    -0.43828    -0.28069     0.06096     0.09690
  in kB       1.04984    -1.74306    -0.70679    -0.45266     0.09830     0.15627
  external pressure =       -0.47 kB  Pullay stress =        0.00 kB

  kinetic pressure (ideal gas correction) =      0.00 kB
  total pressure  =     -0.46 kB
  Total+kin.     1.055      -1.741      -0.707      -0.453       0.098       0.157

 VOLUME and BASIS-vectors are now :
 -----------------------------------------------------------------------------
  energy-cutoff  :      400.00
  volume of cell :      993.50
      direct lattice vectors                 reciprocal lattice vectors
     9.703409344  0.000000000  0.000000000     0.103056561 -0.000214621  0.000183809
     0.021377035 10.264789430  0.000000000     0.000000000  0.097420411  0.000513858
    -0.017899940 -0.052612237  9.974563119     0.000000000  0.000000000  0.100255017

  length of vectors
     9.703409344 10.264811689  9.974717934     0.103056949  0.097421766  0.100255017


 FORCES acting on ions
    electron-ion (+dipol)            ewald-force                    non-local-force                 convergence-correction
 -----------------------------------------------------------------------------------------------
   -.165E+02 0.296E+02 0.405E+02   0.182E+02 -.325E+02 -.447E+02   -.168E+01 0.308E+01 0.419E+01   0.799E-03 -.722E-04 -.189E-03
   0.535E+02 -.659E+01 0.330E+01   -.604E+02 0.741E+01 -.373E+01   0.587E+01 -.718E+00 0.356E+00   0.101E-03 0.176E-03 0.642E-05
   -.224E+02 -.471E+02 0.125E+01   0.246E+02 0.513E+02 -.134E+01   -.223E+01 -.476E+01 0.135E+00   0.827E-03 0.346E-03 0.542E-04
   -.113E+02 0.253E+02 -.449E+02   0.126E+02 -.277E+02 0.494E+02   -.114E+01 0.263E+01 -.462E+01   0.782E-03 -.432E-04 0.326E-03
   -.434E+01 -.139E+01 -.300E+00   0.507E+01 0.156E+01 0.351E+00   0.228E+00 -.117E-01 0.267E-01   0.426E-02 0.687E-03 0.293E-03
 -----------------------------------------------------------------------------------------------
[...]
  nose kinetic   EPS    =         0.000000
  ---------------------------------------------------
  total energy   ETOTAL =       -24.002309 eV

  maximum distance moved by ions :      0.46E-03

    WAVPRE:  cpu time    0.0442: real time    0.0446
    FEWALD:  cpu time    0.0005: real time    0.0005
    ORTHCH:  cpu time    0.0081: real time    0.0081
 Prediction of Wavefunctions ALPHA= 2.152 BETA=-1.185
     LOOP+:  cpu time    2.2942: real time    2.3459


--------------------------------------- Iteration     10(   1)  ---------------------------------------


    POTLOK:  cpu time    0.1457: real time    0.1465
    SETDIJ:  cpu time    0.0017: real time    0.0017
     EDDAV:  cpu time    0.1511: real time    0.1520
       DOS:  cpu time    0.0002: real time    0.0002
    CHARGE:  cpu time    0.0221: real time    0.0222
    MIXING:  cpu time    0.0042: real time    0.0042
    --------------------------------------------
      LOOP:  cpu time    0.3252: real time    0.3269

 eigenvalue-minimisations  :    64
 total energy-change (2. order) : 0.5060905E-02  (-0.5026800E-04)
 number of electron       7.9999998 magnetization 
 augmentation part        0.1847049 magnetization 

 Broyden mixing:
  rms(total) = 0.20672E-03    rms(broyden)= 0.20611E-03
  rms(prec ) = 0.25381E-03
  weight for this iteration     100.00

 Free energy of the ion-electron system (eV)
  ---------------------------------------------------
  alpha Z        PSCENC =         0.24383549
  Ewald energy   TEWEN  =       128.05695372
  -Hartree energ DENC   =      -283.89426009
  -exchange      EXHF   =         0.00000000
  -V(xc)+E(xc)   XCENC  =        24.71949153
  PAW double counting   =       464.48889594     -465.27495961
  entropy T*S    EENTRO =        -0.00000000
  eigenvalues    EBANDS =       -89.39046150
  atomic energy  EATOM  =       197.04175453
  Solvation  Ediel_sol  =         0.00000000
  ---------------------------------------------------
  free energy    TOTEN  =       -24.00874998 eV

  energy without entropy =      -24.00874998  energy(sigma->0) =      -24.00874998


--------------------------------------------------------------------------------------------------------




--------------------------------------- Iteration     10(   2)  ---------------------------------------


    POTLOK:  cpu time    0.1431: real time    0.1451
    SETDIJ:  cpu time    0.0018: real time    0.0018
    EDDIAG:  cpu time    0.0429: real time    0.0431
  RMM-DIIS:  cpu time    0.1571: real time    0.1585
    ORTHCH:  cpu time    0.0018: real time    0.0018
       DOS:  cpu time    0.0002: real time    0.0002
    CHARGE:  cpu time    0.0223: real time    0.0224
    MIXING:  cpu time    0.0044: real time    0.0044
    --------------------------------------------
      LOOP:  cpu time    0.3736: real time    0.3774

 eigenvalue-minimisations  :    60
 total energy-change (2. order) :-0.3029669E-05  (-0.1141345E-05)
 number of electron       7.9999998 magnetization 
 augmentation part        0.1847074 magnetization 

 Broyden mixing:
  rms(total) = 0.21013E-03    rms(broyden)= 0.20981E-03
  rms(prec ) = 0.27165E-03
  weight for this iteration     100.00

 eigenvalues of (default mixing * dielectric matrix)
  average eigenvalue GAMMA=   0.4976
  0.4976

 Free energy of the ion-electron system (eV)
  ---------------------------------------------------
  alpha Z        PSCENC =         0.24383549
  Ewald energy   TEWEN  =       128.05695372
  -Hartree energ DENC   =      -283.89199015
  -exchange      EXHF   =         0.00000000
  -V(xc)+E(xc)   XCENC  =        24.71936229
  PAW double counting   =       464.47723749     -465.26325293
  entropy T*S    EENTRO =        -0.00000000
  eigenvalues    EBANDS =       -89.39265346
  atomic energy  EATOM  =       197.04175453
  Solvation  Ediel_sol  =         0.00000000
  ---------------------------------------------------
  free energy    TOTEN  =       -24.00875301 eV

  energy without entropy =      -24.00875301  energy(sigma->0) =      -24.00875301


--------------------------------------------------------------------------------------------------------




--------------------------------------- Iteration     10(   3)  ---------------------------------------


    POTLOK:  cpu time    0.1440: real time    0.1466
    SETDIJ:  cpu time    0.0017: real time    0.0017
    EDDIAG:  cpu time    0.0428: real time    0.0431
  RMM-DIIS:  cpu time    0.1326: real time    0.1331
    ORTHCH:  cpu time    0.0014: real time    0.0014
       DOS:  cpu time    0.0002: real time    0.0002
    CHARGE:  cpu time    0.0224: real time    0.0225
    MIXING:  cpu time    0.0043: real time    0.0043
    --------------------------------------------
      LOOP:  cpu time    0.3495: real time    0.3530

 eigenvalue-minimisations  :    48
 total energy-change (2. order) :-0.7722820E-06  (-0.2563607E-07)
 number of electron       7.9999998 magnetization 
 augmentation part        0.1847081 magnetization 

 Broyden mixing:
  rms(total) = 0.17504E-03    rms(broyden)= 0.17501E-03
  rms(prec ) = 0.22576E-03
  weight for this iteration     100.00

 eigenvalues of (default mixing * dielectric matrix)
  average eigenvalue GAMMA=   1.3903
  1.3903  1.3903

 Free energy of the ion-electron system (eV)
  ---------------------------------------------------
  alpha Z        PSCENC =         0.24383549
  Ewald energy   TEWEN  =       128.05695372
  -Hartree energ DENC   =      -283.89079608
  -exchange      EXHF   =         0.00000000
  -V(xc)+E(xc)   XCENC  =        24.71930962
  PAW double counting   =       464.46887036     -465.25487084
  entropy T*S    EENTRO =        -0.00000000
  eigenvalues    EBANDS =       -89.39381059
  atomic energy  EATOM  =       197.04175453
  Solvation  Ediel_sol  =         0.00000000
  ---------------------------------------------------
  free energy    TOTEN  =       -24.00875378 eV

  energy without entropy =      -24.00875378  energy(sigma->0) =      -24.00875378


--------------------------------------------------------------------------------------------------------




--------------------------------------- Iteration     10(   4)  ---------------------------------------


    POTLOK:  cpu time    0.1457: real time    0.1463
    SETDIJ:  cpu time    0.0019: real time    0.0019
    EDDIAG:  cpu time    0.0429: real time    0.0430
  RMM-DIIS:  cpu time    0.1277: real time    0.1296
    ORTHCH:  cpu time    0.0015: real time    0.0015
       DOS:  cpu time    0.0002: real time    0.0002
    CHARGE:  cpu time    0.0220: real time    0.0227
    MIXING:  cpu time    0.0044: real time    0.0044
    --------------------------------------------
      LOOP:  cpu time    0.3460: real time    0.3497

 eigenvalue-minimisations  :    48
 total energy-change (2. order) :-0.3385550E-05  (-0.6018707E-07)
 number of electron       7.9999998 magnetization 
 augmentation part        0.1847124 magnetization 

 Broyden mixing:
  rms(total) = 0.32467E-04    rms(broyden)= 0.32412E-04
  rms(prec ) = 0.58626E-04
  weight for this iteration     100.00

 eigenvalues of (default mixing * dielectric matrix)
  average eigenvalue GAMMA=   1.2575
  0.8396  1.4665  1.4665

 Free energy of the ion-electron system (eV)
  ---------------------------------------------------
  alpha Z        PSCENC =         0.24383549
  Ewald energy   TEWEN  =       128.05695372
  -Hartree energ DENC   =      -283.88740453
  -exchange      EXHF   =         0.00000000
  -V(xc)+E(xc)   XCENC  =        24.71916658
  PAW double counting   =       464.44189486     -465.22785323
  entropy T*S    EENTRO =        -0.00000000
  eigenvalues    EBANDS =       -89.39710459
  atomic energy  EATOM  =       197.04175453
  Solvation  Ediel_sol  =         0.00000000
  ---------------------------------------------------
  free energy    TOTEN  =       -24.00875717 eV

  energy without entropy =      -24.00875717  energy(sigma->0) =      -24.00875717


--------------------------------------------------------------------------------------------------------




--------------------------------------- Iteration     10(   5)  ---------------------------------------


    POTLOK:  cpu time    0.1410: real time    0.1461
    SETDIJ:  cpu time    0.0017: real time    0.0017
    EDDIAG:  cpu time    0.0415: real time    0.0430
  RMM-DIIS:  cpu time    0.1258: real time    0.1319
    ORTHCH:  cpu time    0.0017: real time    0.0018
       DOS:  cpu time    0.0002: real time    0.0002
    --------------------------------------------
      LOOP:  cpu time    0.3119: real time    0.3246

 eigenvalue-minimisations  :    48
 total energy-change (2. order) :-0.6552871E-06  (-0.6016572E-08)
 number of electron       7.9999998 magnetization 
 augmentation part        0.1847124 magnetization 

 Free energy of the ion-electron system (eV)
  ---------------------------------------------------
  alpha Z        PSCENC =         0.24383549
  Ewald energy   TEWEN  =       128.05695372
  -Hartree energ DENC   =      -283.88821767
  -exchange      EXHF   =         0.00000000
  -V(xc)+E(xc)   XCENC  =        24.71920483
  PAW double counting   =       464.44217479     -465.22814172
  entropy T*S    EENTRO =        -0.00000000
  eigenvalues    EBANDS =       -89.39632180
  atomic energy  EATOM  =       197.04175453
  Solvation  Ediel_sol  =         0.00000000
  ---------------------------------------------------
  free energy    TOTEN  =       -24.00875782 eV

  energy without entropy =      -24.00875782  energy(sigma->0) =      -24.00875782


--------------------------------------------------------------------------------------------------------




 average (electrostatic) potential at core
  the test charge radii are     0.5201  0.6991
  (the norm of the test charge is              1.0000)
       1 -41.5114       2 -41.2507       3 -41.6435       4 -41.5242       5 -57.9759
 
 
 
 E-fermi :  -8.2240     XC(G=0):  -0.7069     alpha+bet : -0.2120


 k-point     1 :       0.2500    0.2500    0.2500
  band No.  band energies     occupation 
      1     -16.8676      2.00000
      2      -9.3903      2.00000
      3      -9.2973      2.00000
      4      -9.1430      2.00000
      5      -0.3162      0.00000
      6       0.5570      0.00000
      7       0.6765      0.00000
      8       0.7051      0.00000

 k-point     2 :      -0.2500    0.2500    0.2500
  band No.  band energies     occupation 
      1     -16.8676      2.00000
      2      -9.3903      2.00000
      3      -9.2974      2.00000
      4      -9.1431      2.00000
      5      -0.3159      0.00000
      6       0.5510      0.00000
      7       0.6739      0.00000
      8       0.7070      0.00000

 k-point     3 :       0.2500   -0.2500    0.2500
  band No.  band energies     occupation 
      1     -16.8675      2.00000
      2      -9.3903      2.00000
      3      -9.2973      2.00000
      4      -9.1430      2.00000
      5      -0.3164      0.00000
      6       0.5532      0.00000
      7       0.6794      0.00000
      8       0.7046      0.00000

 k-point     4 :      -0.2500   -0.2500    0.2500
  band No.  band energies     occupation 
      1     -16.8676      2.00000
      2      -9.3902      2.00000
      3      -9.2973      2.00000
      4      -9.1430      2.00000
      5      -0.3176      0.00000
      6       0.5598      0.00000
      7       0.6825      0.00000
      8       0.7054      0.00000


--------------------------------------------------------------------------------------------------------


 soft charge-density along one line, spin component           1
         0         1         2         3         4         5         6         7         8         9
 total charge-density along one line
 
 pseudopotential strength for first ion, spin component:           1
 -2.341  -4.034  -0.001  -0.001   0.001
 -4.034  -6.865  -0.003  -0.004   0.002
 -0.001  -0.003  -0.337   0.002  -0.001
 -0.001  -0.004   0.002  -0.336  -0.001
  0.001   0.002  -0.001  -0.001  -0.338
 total augmentation occupancy for first ion, spin component:           1
  3.554  -0.640   0.240   0.334  -0.135
 -0.640   0.129  -0.044  -0.062   0.025
  0.240  -0.044   0.023   0.019  -0.008
  0.334  -0.062   0.019   0.035  -0.011
 -0.135   0.025  -0.008  -0.011   0.013


------------------------ aborting loop because EDIFF is reached ----------------------------------------


    CHARGE:  cpu time    0.0216: real time    0.0223
    FORLOC:  cpu time    0.0104: real time    0.0105
    FORNL :  cpu time    0.0173: real time    0.0175
    STRESS:  cpu time    0.1393: real time    0.1414
    FORCOR:  cpu time    0.1432: real time    0.1461
    FORHAR:  cpu time    0.0463: real time    0.0466
    MIXING:  cpu time    0.0048: real time    0.0048
    OFIELD:  cpu time    0.0000: real time    0.0000

  FORCE on cell =-STRESS in cart. coord.  units (eV):
  Direction    XX          YY          ZZ          XY          YZ          ZX
  --------------------------------------------------------------------------------------
  Alpha Z     0.24384     0.24384     0.24384
  Ewald      44.46909    40.66872    42.91912     0.56796    -0.23107    -0.24151
  Hartree    98.30184    91.02440    94.56284    -0.08909    -0.10807    -0.03312
  E(xc)     -27.18457   -27.18636   -27.18870    -0.00205    -0.00043    -0.00022
  Local    -202.33876  -189.84112  -196.12460    -0.19113     0.30078     0.20125
  n-local   -15.76079   -15.90615   -15.87066    -0.03328     0.00239     0.00675
  augment     0.12446     0.11071     0.11560    -0.00298     0.00036     0.00063
  Kinetic   100.89636   100.99114   101.11192     0.09655     0.02118     0.00969
  Fock        0.00000     0.00000     0.00000     0.00000     0.00000     0.00000
  -------------------------------------------------------------------------------------
  Total      -1.24854     0.10518    -0.23065     0.34598    -0.01486    -0.05653
  in kB      -2.01347     0.16961    -0.37196     0.55795    -0.02396    -0.09117
  external pressure =       -0.74 kB  Pullay stress =        0.00 kB

  kinetic pressure (ideal gas correction) =      0.01 kB
  total pressure  =     -0.73 kB
  Total+kin.    -1.998       0.182      -0.371       0.558      -0.026      -0.089

 VOLUME and BASIS-vectors are now :
 -----------------------------------------------------------------------------
  energy-cutoff  :      400.00
  volume of cell :      993.50
      direct lattice vectors                 reciprocal lattice vectors
     9.703409344  0.000000000  0.000000000     0.103056561 -0.000214621  0.000183809
     0.021377035 10.264789430  0.000000000     0.000000000  0.097420411  0.000513858
    -0.017899940 -0.052612237  9.974563119     0.000000000  0.000000000  0.100255017

  length of vectors
     9.703409344 10.264811689  9.974717934     0.103056949  0.097421766  0.100255017


 FORCES acting on ions
    electron-ion (+dipol)            ewald-force                    non-local-force                 convergence-correction
 -----------------------------------------------------------------------------------------------
   -.165E+02 0.293E+02 0.408E+02   0.182E+02 -.324E+02 -.452E+02   -.172E+01 0.307E+01 0.427E+01   -.296E-04 -.666E-04 -.596E-04
   0.508E+02 -.608E+01 0.321E+01   -.549E+02 0.656E+01 -.347E+01   0.499E+01 -.591E+00 0.314E+00   -.408E-04 -.176E-04 -.170E-06
   -.235E+02 -.482E+02 0.116E+01   0.263E+02 0.538E+02 -.129E+01   -.252E+01 -.519E+01 0.127E+00   -.310E-04 0.229E-04 0.540E-05
   -.116E+02 0.249E+02 -.453E+02   0.128E+02 -.276E+02 0.501E+02   -.120E+01 0.262E+01 -.475E+01   -.375E-04 -.546E-04 0.621E-04
   0.182E+01 0.261E+00 0.146E+00   -.238E+01 -.409E+00 -.189E+00   -.684E+00 -.190E+00 -.511E-01   -.188E-03 -.207E-04 0.301E-04
 -----------------------------------------------------------------------------------------------
   0.113E+01 0.277E+00 0.868E-01   -.178E-14 0.355E-14 0.000E+00   -.113E+01 -.277E+00 -.869E-01   -.327E-03 -.137E-03 0.378E-04
 
 
 POSITION                                       TOTAL-FORCE (eV/Angst)
 -----------------------------------------------------------------------------------
      5.22980      4.16668      3.59508         0.023869     -0.017473     -0.064314
      3.76959      4.90549      4.37003         0.912946     -0.113634      0.052996
      5.36194      5.74286      4.41709         0.269508      0.498541     -0.005234
      5.12647      4.25798      5.37525         0.035824     -0.029350      0.110809
      4.88875      4.77279      4.44057        -1.242639     -0.337887     -0.094341
 -----------------------------------------------------------------------------------
    total drift:                               -0.000492      0.000197     -0.000084


--------------------------------------------------------------------------------------------------------



  FREE ENERGIE OF THE ION-ELECTRON SYSTEM (eV)
  ---------------------------------------------------
  free  energy   TOTEN  =       -24.00875782 eV

  energy  without entropy=      -24.00875782  energy(sigma->0) =      -24.00875782
 
 d Force =-0.5048331E-02[-0.552E-02,-0.457E-02]  d Energy =-0.5053280E-02 0.495E-05
 d Force = 0.4564632E-01[ 0.448E-01, 0.465E-01]  d Ewald  = 0.4564469E-01 0.163E-05


--------------------------------------------------------------------------------------------------------


    POTLOK:  cpu time    0.1469: real time    0.2073


--------------------------------------------------------------------------------------------------------


 stress matrix after NEB project (eV)
     -1.24854      0.34598     -0.05653
      0.34598      0.10518     -0.01486
     -0.05653     -0.01486     -0.23065
  FORCES: max atom, RMS     1.291208    0.755917
  FORCE total and by dimension    1.690281    1.242639
  Stress total and by dimension    1.367244    1.248541
           RANDOM_SEED =         581343751               30                0
   IONSTEP:  cpu time    0.0001: real time    0.0001

  ENERGY OF THE ELECTRON-ION-THERMOSTAT SYSTEM (eV)
  ---------------------------------------------------
% ion-electron   TOTEN  =       -24.008758  see above
  kinetic energy EKIN   =         0.006557
  kin. lattice  EKIN_LAT=         0.000000  (temperature   12.68 K)
  nose potential ES     =         0.000000
  nose kinetic   EPS    =         0.000000
  ---------------------------------------------------
  total energy   ETOTAL =       -24.002201 eV

  maximum distance moved by ions :      0.29E-03


 mean value of Nose-termostat <S>:     1.000 mean value of <T> :    26.809
 mean temperature <T/S>/<1/S>  :    26.809

    WAVPRE:  cpu time    0.0477: real time    0.0482
    FEWALD:  cpu time    0.0003: real time    0.0003
    ORTHCH:  cpu time    0.0080: real time    0.0080
 Prediction of Wavefunctions ALPHA= 2.089 BETA=-1.113
    POTLOK:  cpu time    0.1502: real time    0.1508
    EDDIAG:  cpu time    0.0442: real time    0.0443
     LOOP+:  cpu time    2.4909: real time    2.5848
    4ORBIT:  cpu time    0.0000: real time    0.0006

 total amount of memory used by VASP MPI-rank0    54095. kBytes
=======================================================================

   base      :      30000. kBytes
   nonl-proj :       2673. kBytes
   fftplans  :       7644. kBytes
   grid      :      12032. kBytes
   one-center:          6. kBytes
   wavefun   :       1740. kBytes
 
  
  
 General timing and accounting informations for this job:
 ========================================================
  
                  Total CPU time used (sec):       28.939
                            User time (sec):       27.211
                          System time (sec):        1.728
                         Elapsed time (sec):       30.289
  
                   Maximum memory used (kb):      171996.
                   Average memory used (kb):           0.
  
                          Minor page faults:       241229
                          Major page faults:          204
                 Voluntary context switches:          645
