 vasp.5.4.4.18Apr17-6-g9f103f2a35 (build Nov 25 2021 15:25:00) complex          
  
 executed on             LinuxIFC date 2022.02.21  10:18:14
 running on   16 total cores
 distrk:  each k-point on   16 cores,    1 groups
 distr:  one band on NCORES_PER_BAND=   4 cores,    4 groups


--------------------------------------------------------------------------------------------------------


 INCAR:
 POTCAR:    PAW_PBE H 15Jun2001                   
 POTCAR:    PAW_PBE C 08Apr2002                   
 POTCAR:    PAW_PBE H 15Jun2001                   
   VRHFIN =H: ultrasoft test                                                    
   LEXCH  = PE                                                                  
   EATOM  =    12.4884 eV,    0.9179 Ry                                         
                                                                                
   TITEL  = PAW_PBE H 15Jun2001                                                 
   LULTRA =        F    use ultrasoft PP ?                                      
   IUNSCR =        0    unscreen: 0-lin 1-nonlin 2-no                           
   RPACOR =    0.000    partial core radius                                     
   POMASS =    1.000; ZVAL   =    1.000    mass and valenz                      
   RCORE  =    1.100    outmost cutoff radius                                   
   RWIGS  =    0.700; RWIGS  =    0.370    wigner-seitz radius (au A)           
   ENMAX  =  250.000; ENMIN  =  200.000 eV                                      
   RCLOC  =    0.701    cutoff for local pot                                    
   LCOR   =        T    correct aug charges                                     
   LPAW   =        T    paw PP                                                  
   EAUG   =  400.000                                                            
   RMAX   =    1.123    core radius for proj-oper                               
   RAUG   =    1.200    factor for augmentation sphere                          
   RDEP   =    1.112    radius for radial grids                                 
   RDEPT  =    0.926    core radius for aug-charge                              
                                                                                
   Atomic configuration                                                         
    2 entries                                                                   
     n  l   j            E        occ.                                          
     1  0  0.50        -6.4927   1.0000                                         
     2  1  0.50        -3.4015   0.0000                                         
   Description                                                                  
     l       E           TYP  RCUT    TYP  RCUT                                 
     0     -6.4927494     23  1.100                                             
     0      6.8029130     23  1.100                                             
     1     -4.0817478     23  1.100                                             
  local pseudopotential read in
  atomic valenz-charges read in
  non local Contribution for L=           0  read in
    real space projection operators read in
  non local Contribution for L=           0  read in
    real space projection operators read in
  non local Contribution for L=           1  read in
    real space projection operators read in
    PAW grid and wavefunctions read in
 
   number of l-projection  operators is LMAX  =           3
   number of lm-projection operators is LMMAX =           5
 
 POTCAR:    PAW_PBE C 08Apr2002                   
   VRHFIN =C: s2p2                                                              
   LEXCH  = PE                                                                  
   EATOM  =   147.1560 eV,   10.8157 Ry                                         
                                                                                
   TITEL  = PAW_PBE C 08Apr2002                                                 
   LULTRA =        F    use ultrasoft PP ?                                      
   IUNSCR =        1    unscreen: 0-lin 1-nonlin 2-no                           
   RPACOR =    1.200    partial core radius                                     
   POMASS =   12.011; ZVAL   =    4.000    mass and valenz                      
   RCORE  =    1.500    outmost cutoff radius                                   
   RWIGS  =    1.630; RWIGS  =    0.863    wigner-seitz radius (au A)           
   ENMAX  =  400.000; ENMIN  =  300.000 eV                                      
   ICORE  =        2    local potential                                         
   LCOR   =        T    correct aug charges                                     
   LPAW   =        T    paw PP                                                  
   EAUG   =  644.873                                                            
   DEXC   =    0.000                                                            
   RMAX   =    1.529    core radius for proj-oper                               
   RAUG   =    1.300    factor for augmentation sphere                          
   RDEP   =    1.501    radius for radial grids                                 
   RDEPT  =    1.300    core radius for aug-charge                              
                                                                                
   Atomic configuration                                                         
    4 entries                                                                   
     n  l   j            E        occ.                                          
     1  0  0.50      -273.3789   2.0000                                         
     2  0  0.50       -13.7508   2.0000                                         
     2  1  0.50        -5.2854   2.0000                                         
     3  2  1.50        -5.4423   0.0000                                         
   Description                                                                  
     l       E           TYP  RCUT    TYP  RCUT                                 
     0    -13.7508458     23  1.200                                             
     0     -8.2022199     23  1.200                                             
     1     -5.2854383     23  1.500                                             
     1     34.0145650     23  1.500                                             
     2     -5.4423304      7  1.500                                             
  local pseudopotential read in
  partial core-charges read in
  partial kinetic energy density read in
  atomic valenz-charges read in
  non local Contribution for L=           0  read in
    real space projection operators read in
  non local Contribution for L=           0  read in
    real space projection operators read in
  non local Contribution for L=           1  read in
    real space projection operators read in
  non local Contribution for L=           1  read in
    real space projection operators read in
    PAW grid and wavefunctions read in
 
   number of l-projection  operators is LMAX  =           4
   number of lm-projection operators is LMMAX =           8
 
  PAW_PBE H 15Jun2001                   :
 energy of atom  1       EATOM=  -12.4884
 kinetic energy error for atom=    0.0098 (will be added to EATOM!!)
  PAW_PBE C 08Apr2002                   :
 energy of atom  2       EATOM= -147.1560
 kinetic energy error for atom=    0.0288 (will be added to EATOM!!)
 
 
 POSCAR:  H  C                                   
  positions in cartesian coordinates
  No initial velocities read in
 exchange correlation table for  LEXCH =        8
   RHO(1)=    0.500       N(1)  =     2000
   RHO(2)=  100.500       N(2)  =     4000

 VTST: version 3.2, (02/03/18)

 CHAIN: initializing optimizer
 
 OPT: Using VASP Dynamics algorithm
 CHAIN: Read ICHAIN            0
 
 POSCAR:  H  C                                   
  positions in cartesian coordinates
  No initial velocities read in
 


--------------------------------------------------------------------------------------------------------


 ion  position               nearest neighbor table
   1  0.538  0.407  0.361-   5 1.10
   2  0.395  0.480  0.438-   5 1.09
   3  0.552  0.565  0.442-   5 1.07
   4  0.528  0.417  0.539-   5 1.08
   5  0.504  0.467  0.445-   3 1.07   4 1.08   2 1.09   1 1.10
 

IMPORTANT INFORMATION: All symmetrisations will be switched off!
NOSYMM: (Re-)initialisation of all symmetry stuff for point group C_1.

 
 

Automatic generation of k-mesh.
 generate k-points for:    2    2    2
Space group operators:
 irot       det(A)        alpha          n_x          n_y          n_z        tau_x        tau_y        tau_z
    1     1.000000     0.000000     1.000000     0.000000     0.000000     0.000000     0.000000     0.000000
 
 Subroutine IBZKPT returns following result:
 ===========================================
 
 Found      4 irreducible k-points:
 
 Following reciprocal coordinates:
            Coordinates               Weight
  0.250000  0.250000  0.250000      2.000000
 -0.250000  0.250000  0.250000      2.000000
  0.250000 -0.250000  0.250000      2.000000
 -0.250000 -0.250000  0.250000      2.000000
 
 Following cartesian coordinates:
            Coordinates               Weight
  0.024980  0.025625  0.024658      2.000000
 -0.024980  0.025274  0.024257      2.000000
  0.024980 -0.025274  0.025767      2.000000
 -0.024980 -0.025625  0.025366      2.000000
 


--------------------------------------------------------------------------------------------------------




 Dimension of arrays:
   k-points           NKPTS =      4   k-points in BZ     NKDIM =      4   number of bands    NBANDS=      8
   number of dos      NEDOS =    301   number of ions     NIONS =      5
   non local maximal  LDIM  =      4   non local SUM 2l+1 LMDIM =      8
   total plane-waves  NPLWV = 313600
   max r-space proj   IRMAX =      1   max aug-charges    IRDMAX=   3965
   dimension x,y,z NGX =    70 NGY =   64 NGZ =   70
   dimension x,y,z NGXF=   140 NGYF=  128 NGZF=  140
   support grid    NGXF=   140 NGYF=  128 NGZF=  140
   ions per type =               4   1
   NGX,Y,Z   is equivalent  to a cutoff of  11.63, 10.83, 11.64 a.u.
   NGXF,Y,Z  is equivalent  to a cutoff of  23.26, 21.66, 23.28 a.u.

 SYSTEM =  unknown system                          
 POSCAR =   H  C                                   

 Startparameter for this run:
   NWRITE =      2    write-flag & timer
   PREC   = a         normal or accurate (medium, high low for compatibility)
   ISTART =      0    job   : 0-new  1-cont  2-samecut
   ICHARG =      2    charge: 1-file 2-atom 10-const
   ISPIN  =      1    spin polarized calculation?
   LNONCOLLINEAR =      F non collinear calculations
   LSORBIT =      F    spin-orbit coupling
   INIWAV =      1    electr: 0-lowe 1-rand  2-diag
   LASPH  =      F    aspherical Exc in radial PAW
   METAGGA=      F    non-selfconsistent MetaGGA calc.

 Electronic Relaxation 1
   ENCUT  =  400.0 eV  29.40 Ry    5.42 a.u.  16.32 16.02 16.30*2*pi/ulx,y,z
   ENINI  =  400.0     initial cutoff
   ENAUG  =  644.9 eV  augmentation charge cutoff
   NELM   =    120;   NELMIN=  4; NELMDL= -5     # of ELM steps 
   EDIFF  = 0.1E-05   stopping-criterion for ELM
   LREAL  =      F    real-space projection
   NLSPLINE    = F    spline interpolate recip. space projectors
   LCOMPAT=      F    compatible to vasp.4.4
   GGA_COMPAT  = T    GGA compatible to vasp.4.4-vasp.4.6
   LMAXPAW     = -100 max onsite density
   LMAXMIX     =    2 max onsite mixed and CHGCAR
   VOSKOWN=      0    Vosko Wilk Nusair interpolation
   ROPT   =    0.00000   0.00000
 Ionic relaxation
   EDIFFG = 0.1E-04   stopping-criterion for IOM
   NSW    =     10    number of steps for IOM
   NBLOCK =      1;   KBLOCK =     10    inner block; outer block 
   IBRION =      0    ionic relax: 0-MD 1-quasi-New 2-CG
   NFREE  =      0    steps in history (QN), initial steepest desc. (CG)
   ISIF   =      2    stress and relaxation
   IWAVPR =     12    prediction:  0-non 1-charg 2-wave 3-comb
   ISYM   =      0    0-nonsym 1-usesym 2-fastsym
   LCORR  =      T    Harris-Foulkes like correction to forces

   POTIM  = 0.5000    time-step for ionic-motion
   TEIN   =    0.0    initial temperature
   TEBEG  =    0.0;   TEEND  =   0.0 temperature during run
   SMASS  =  -3.00    Nose mass-parameter (am)
   estimated Nose-frequenzy (Omega)   =  0.10E-29 period in steps =****** mass=  -0.229E-26a.u.
   SCALEE = 1.0000    scale energy and forces
   NPACO  =    256;   APACO  = 16.0  distance and # of slots for P.C.
   PSTRESS=    0.0 pullay stress

  Mass of Ions in am
   POMASS =   1.00 12.01
  Ionic Valenz
   ZVAL   =   1.00  4.00
  Atomic Wigner-Seitz radii
   RWIGS  =  -1.00 -1.00
  virtual crystal weights 
   VCA    =   1.00  1.00
   NELECT =       8.0000    total number of electrons
   NUPDOWN=      -1.0000    fix difference up-down

 DOS related values:
   EMIN   =  10.00;   EMAX   =-10.00  energy-range for DOS
   EFERMI =   0.00
   ISMEAR =     0;   SIGMA  =   0.20  broadening in eV -4-tet -1-fermi 0-gaus

 Electronic relaxation 2 (details)
   IALGO  =     68    algorithm
   LDIAG  =      T    sub-space diagonalisation (order eigenvalues)
   LSUBROT=      F    optimize rotation matrix (better conditioning)
   TURBO    =      0    0=normal 1=particle mesh
   IRESTART =      0    0=no restart 2=restart with 2 vectors
   NREBOOT  =      0    no. of reboots
   NMIN     =      0    reboot dimension
   EREF     =   0.00    reference energy to select bands
   IMIX   =      4    mixing-type and parameters
     AMIX     =   0.40;   BMIX     =  1.00
     AMIX_MAG =   1.60;   BMIX_MAG =  1.00
     AMIN     =   0.10
     WC   =   100.;   INIMIX=   1;  MIXPRE=   1;  MAXMIX= -45

 Intra band minimization:
   WEIMIN = 0.0010     energy-eigenvalue tresh-hold
   EBREAK =  0.31E-07  absolut break condition
   DEPER  =   0.30     relativ break condition  

   TIME   =   0.40     timestep for ELM

  volume/ion in A,a.u.               =     196.53      1326.25
  Fermi-wavevector in a.u.,A,eV,Ry     =   0.329336  0.622354  1.475715  0.108462
  Thomas-Fermi vector in A             =   1.223695
 
 Write flags
   LWAVE        =      F    write WAVECAR
   LDOWNSAMPLE  =      F    k-point downsampling of WAVECAR
   LCHARG       =      F    write CHGCAR
   LVTOT        =      F    write LOCPOT, total local potential
   LVHAR        =      F    write LOCPOT, Hartree potential only
   LELF         =      F    write electronic localiz. function (ELF)
   LORBIT       =      0    0 simple, 1 ext, 2 COOP (PROOUT), +10 PAW based schemes


 Dipole corrections
   LMONO  =      F    monopole corrections only (constant potential shift)
   LDIPOL =      F    correct potential (dipole corrections)
   IDIPOL =      0    1-x, 2-y, 3-z, 4-all directions 
   EPSILON=  1.0000000 bulk dielectric constant

 Exchange correlation treatment:
   GGA     =    --    GGA type
   LEXCH   =     8    internal setting for exchange type
   VOSKOWN=      0    Vosko Wilk Nusair interpolation
   LHFCALC =     F    Hartree Fock is set to
   LHFONE  =     F    Hartree Fock one center treatment
   AEXX    =    0.0000 exact exchange contribution

 Linear response parameters
   LEPSILON=     F    determine dielectric tensor
   LRPA    =     F    only Hartree local field effects (RPA)
   LNABLA  =     F    use nabla operator in PAW spheres
   LVEL    =     F    velocity operator in full k-point grid
   LINTERFAST=   F  fast interpolation
   KINTER  =     0    interpolate to denser k-point grid
   CSHIFT  =0.1000    complex shift for real part using Kramers Kronig
   OMEGAMAX=  -1.0    maximum frequency
   DEG_THRESHOLD= 0.2000000E-02 threshold for treating states as degnerate
   RTIME   =   -0.100 relaxation time in fs
  (WPLASMAI=    0.000 imaginary part of plasma frequency in eV, 0.658/RTIME)
   DFIELD  = 0.0000000 0.0000000 0.0000000 field for delta impulse in time
 
 Orbital magnetization related:
   ORBITALMAG=     F  switch on orbital magnetization
   LCHIMAG   =     F  perturbation theory with respect to B field
   DQ        =  0.001000  dq finite difference perturbation B field
   LLRAUG    =     F  two centre corrections for induced B field



--------------------------------------------------------------------------------------------------------


 molecular dynamics for ions
   using a microcanonical ensemble
 charge density and potential will be updated during run
 non-spin polarized calculation
 RMM-DIIS sequential band-by-band and
  variant of blocked Davidson during initial phase
 perform sub-space diagonalisation
    before iterative eigenvector-optimisation
 modified Broyden-mixing scheme, WC =      100.0
 initial mixing is a Kerker type mixing with AMIX =  0.4000 and BMIX =      1.0000
 Hartree-type preconditioning will be used
 using additional bands            4
 reciprocal scheme for non local part
 use partial core corrections
 calculate Harris-corrections to forces 
   (improved forces if not selfconsistent)
 use gradient corrections 
 use of overlap-Matrix (Vanderbilt PP)
 Gauss-broadening in eV      SIGMA  =   0.20


--------------------------------------------------------------------------------------------------------


  energy-cutoff  :      400.00
  volume of cell :      982.65
      direct lattice vectors                 reciprocal lattice vectors
    10.007918674  0.000000000  0.000000000     0.099920876  0.000701314  0.000801787
    -0.068947557  9.823410975  0.000000000     0.000000000  0.101797635 -0.002217989
    -0.081732248  0.217777801  9.995207852     0.000000000  0.000000000  0.100047944

  length of vectors
    10.007918674  9.823652933  9.997914150     0.099926554  0.101821795  0.100047944


 
 k-points in units of 2pi/SCALE and weight: read from INCAR                         
   0.02498022  0.02562474  0.02465794       0.250
  -0.02498022  0.02527408  0.02425704       0.250
   0.02498022 -0.02527408  0.02576693       0.250
  -0.02498022 -0.02562474  0.02536604       0.250
 
 k-points in reciprocal lattice and weights: read from INCAR                         
   0.25000000  0.25000000  0.25000000       0.250
  -0.25000000  0.25000000  0.25000000       0.250
   0.25000000 -0.25000000  0.25000000       0.250
  -0.25000000 -0.25000000  0.25000000       0.250
 
 position of ions in fractional coordinates (direct lattice) 
   0.53830857  0.40685010  0.36065067
   0.39528035  0.47988880  0.43816187
   0.55205573  0.56504813  0.44246563
   0.52835069  0.41672301  0.53917027
   0.50363520  0.46738210  0.44513300
 
 position of ions in cartesian coordinates  (Angst):
   5.32982031  4.07519749  3.60477839
   3.88703444  4.80956685  4.37951898
   5.44980643  5.64705916  4.42253593
   5.21489107  4.21106074  5.38911896
   4.97173355  4.68822650  4.44919687
 


--------------------------------------------------------------------------------------------------------


 k-point  1 :   0.2500 0.2500 0.2500  plane waves:   17859
 k-point  2 :  -0.2500 0.2500 0.2500  plane waves:   17847
 k-point  3 :   0.2500-0.2500 0.2500  plane waves:   17865
 k-point  4 :  -0.2500-0.2500 0.2500  plane waves:   17829

 maximum and minimum number of plane-waves per node :      4476     4446

 maximum number of plane-waves:     17865
 maximum index in each direction: 
   IXMAX=   16   IYMAX=   16   IZMAX=   16
   IXMIN=  -16   IYMIN=  -16   IZMIN=  -16


 parallel 3D FFT for wavefunctions:
    minimum data exchange during FFTs selected (reduces bandwidth)
 parallel 3D FFT for charge:
    minimum data exchange during FFTs selected (reduces bandwidth)


 total amount of memory used by VASP MPI-rank0    53439. kBytes
=======================================================================

   base      :      30000. kBytes
   nonl-proj :       2647. kBytes
   fftplans  :       7845. kBytes
   grid      :      12367. kBytes
   one-center:          6. kBytes
   wavefun   :        574. kBytes
 
     INWAV:  cpu time    0.0000: real time    0.0001
 Broyden mixing: mesh for mixing (old mesh)
   NGX = 33   NGY = 33   NGZ = 33
  (NGX  =140   NGY  =128   NGZ  =140)
  gives a total of  35937 points

 initial charge density was supplied:
 charge density of overlapping atoms calculated
 number of electron       8.0000000 magnetization 
 keeping initial charge density in first step


--------------------------------------------------------------------------------------------------------


 Maximum index for augmentation-charges          169 (set IRDMAX)


--------------------------------------------------------------------------------------------------------


 First call to EWALD:  gamma=   0.178
 Maximum number of real-space cells 3x 3x 3
 Maximum number of reciprocal cells 3x 3x 3

    FEWALD:  cpu time    0.0017: real time    0.0018


--------------------------------------- Iteration      1(   1)  ---------------------------------------


    POTLOK:  cpu time    0.1827: real time    0.1939
    SETDIJ:  cpu time    0.0034: real time    0.0037
     EDDAV:  cpu time    0.1722: real time    0.1980
       DOS:  cpu time    0.0006: real time    0.0010
    --------------------------------------------
      LOOP:  cpu time    0.3588: real time    0.3967

 eigenvalue-minimisations  :    88
 total energy-change (2. order) : 0.2131595E+02  (-0.1951571E+03)
 number of electron       8.0000000 magnetization 
 augmentation part        8.0000000 magnetization 

 Free energy of the ion-electron system (eV)
  ---------------------------------------------------
  alpha Z        PSCENC =         0.24652859
  Ewald energy   TEWEN  =       130.18252280
  -Hartree energ DENC   =      -244.39080475
  -exchange      EXHF   =         0.00000000
  -V(xc)+E(xc)   XCENC  =        22.06199477
  PAW double counting   =       117.05815612     -117.66307307
  entropy T*S    EENTRO =        -0.06525138
  eigenvalues    EBANDS =       -83.15588168
  atomic energy  EATOM  =       197.04175453
  Solvation  Ediel_sol  =         0.00000000
  ---------------------------------------------------
  free energy    TOTEN  =        21.31594594 eV

  energy without entropy =       21.38119732  energy(sigma->0) =       21.34857163


--------------------------------------------------------------------------------------------------------




--------------------------------------- Iteration      1(   2)  ---------------------------------------


     EDDAV:  cpu time    0.1564: real time    0.1593
       DOS:  cpu time    0.0002: real time    0.0002
    --------------------------------------------
      LOOP:  cpu time    0.1566: real time    0.1595

 eigenvalue-minimisations  :    80
 total energy-change (2. order) :-0.4249194E+02  (-0.3857400E+02)
 number of electron       8.0000000 magnetization 
 augmentation part        8.0000000 magnetization 

 Free energy of the ion-electron system (eV)
  ---------------------------------------------------
  alpha Z        PSCENC =         0.24652859
  Ewald energy   TEWEN  =       130.18252280
  -Hartree energ DENC   =      -244.39080475
  -exchange      EXHF   =         0.00000000
  -V(xc)+E(xc)   XCENC  =        22.06199477
  PAW double counting   =       117.05815612     -117.66307307
  entropy T*S    EENTRO =        -0.00000000
  eigenvalues    EBANDS =      -125.71307579
  atomic energy  EATOM  =       197.04175453
  Solvation  Ediel_sol  =         0.00000000
  ---------------------------------------------------
  free energy    TOTEN  =       -21.17599679 eV

  energy without entropy =      -21.17599679  energy(sigma->0) =      -21.17599679


--------------------------------------------------------------------------------------------------------




--------------------------------------- Iteration      1(   3)  ---------------------------------------


     EDDAV:  cpu time    0.1350: real time    0.1367
       DOS:  cpu time    0.0002: real time    0.0002
    --------------------------------------------
      LOOP:  cpu time    0.1352: real time    0.1369

 eigenvalue-minimisations  :    64
 total energy-change (2. order) :-0.6133811E+01  (-0.6133811E+01)
 number of electron       8.0000000 magnetization 
 augmentation part        8.0000000 magnetization 

 Free energy of the ion-electron system (eV)
  ---------------------------------------------------
  alpha Z        PSCENC =         0.24652859
  Ewald energy   TEWEN  =       130.18252280
  -Hartree energ DENC   =      -244.39080475
  -exchange      EXHF   =         0.00000000
  -V(xc)+E(xc)   XCENC  =        22.06199477
  PAW double counting   =       117.05815612     -117.66307307
  entropy T*S    EENTRO =        -0.00000000
  eigenvalues    EBANDS =      -131.84688723
  atomic energy  EATOM  =       197.04175453
  Solvation  Ediel_sol  =         0.00000000
  ---------------------------------------------------
  free energy    TOTEN  =       -27.30980822 eV

  energy without entropy =      -27.30980822  energy(sigma->0) =      -27.30980822


--------------------------------------------------------------------------------------------------------




--------------------------------------- Iteration      1(   4)  ---------------------------------------


     EDDAV:  cpu time    0.2069: real time    0.2183
       DOS:  cpu time    0.0005: real time    0.0005
    --------------------------------------------
      LOOP:  cpu time    0.2074: real time    0.2188

 eigenvalue-minimisations  :   112
 total energy-change (2. order) :-0.3602878E+00  (-0.3602878E+00)
 number of electron       8.0000000 magnetization 
 augmentation part        8.0000000 magnetization 

 Free energy of the ion-electron system (eV)
  ---------------------------------------------------
  alpha Z        PSCENC =         0.24652859
  Ewald energy   TEWEN  =       130.18252280
  -Hartree energ DENC   =      -244.39080475
  -exchange      EXHF   =         0.00000000
  -V(xc)+E(xc)   XCENC  =        22.06199477
  PAW double counting   =       117.05815612     -117.66307307
  entropy T*S    EENTRO =        -0.00000000
  eigenvalues    EBANDS =      -132.20717507
  atomic energy  EATOM  =       197.04175453
  Solvation  Ediel_sol  =         0.00000000
  ---------------------------------------------------
  free energy    TOTEN  =       -27.67009607 eV

  energy without entropy =      -27.67009607  energy(sigma->0) =      -27.67009607


--------------------------------------------------------------------------------------------------------




--------------------------------------- Iteration      1(   5)  ---------------------------------------


     EDDAV:  cpu time    0.1943: real time    0.2000
       DOS:  cpu time    0.0002: real time    0.0002
    CHARGE:  cpu time    0.0190: real time    0.0195
    MIXING:  cpu time    0.0039: real time    0.0040
    --------------------------------------------
      LOOP:  cpu time    0.2174: real time    0.2237

 eigenvalue-minimisations  :   104
 total energy-change (2. order) :-0.8178804E-02  (-0.8178805E-02)
 number of electron       8.0000002 magnetization 
 augmentation part        0.2288082 magnetization 

 Broyden mixing:
  rms(total) = 0.88946E+00    rms(broyden)= 0.88927E+00
  rms(prec ) = 0.12654E+01
  weight for this iteration     100.00

 Free energy of the ion-electron system (eV)
  ---------------------------------------------------
  alpha Z        PSCENC =         0.24652859
  Ewald energy   TEWEN  =       130.18252280
  -Hartree energ DENC   =      -244.39080475
  -exchange      EXHF   =         0.00000000
  -V(xc)+E(xc)   XCENC  =        22.06199477
  PAW double counting   =       117.05815612     -117.66307307
  entropy T*S    EENTRO =        -0.00000000
  eigenvalues    EBANDS =      -132.21535387
  atomic energy  EATOM  =       197.04175453
  Solvation  Ediel_sol  =         0.00000000
  ---------------------------------------------------
  free energy    TOTEN  =       -27.67827487 eV

  energy without entropy =      -27.67827487  energy(sigma->0) =      -27.67827487


--------------------------------------------------------------------------------------------------------




--------------------------------------- Iteration      1(   6)  ---------------------------------------


    POTLOK:  cpu time    0.1206: real time    0.1247
    SETDIJ:  cpu time    0.0017: real time    0.0017
    EDDIAG:  cpu time    0.0397: real time    0.0493
  RMM-DIIS:  cpu time    0.1396: real time    0.1417
    ORTHCH:  cpu time    0.0014: real time    0.0015
       DOS:  cpu time    0.0002: real time    0.0002
    CHARGE:  cpu time    0.0173: real time    0.0175
    MIXING:  cpu time    0.0050: real time    0.0065
    --------------------------------------------
      LOOP:  cpu time    0.3254: real time    0.3430

 eigenvalue-minimisations  :    64
 total energy-change (2. order) : 0.3006246E+01  (-0.5642762E+00)
 number of electron       8.0000001 magnetization 
 augmentation part        0.2016762 magnetization 

 Broyden mixing:
  rms(total) = 0.43709E+00    rms(broyden)= 0.43701E+00
  rms(prec ) = 0.57016E+00
  weight for this iteration     100.00

 eigenvalues of (default mixing * dielectric matrix)
  average eigenvalue GAMMA=   1.3127
  1.3127

 Free energy of the ion-electron system (eV)
  ---------------------------------------------------
  alpha Z        PSCENC =         0.24652859
  Ewald energy   TEWEN  =       130.18252280
  -Hartree energ DENC   =      -264.50083281
  -exchange      EXHF   =         0.00000000
  -V(xc)+E(xc)   XCENC  =        23.28215390
  PAW double counting   =       241.64345956     -242.42855748
  entropy T*S    EENTRO =        -0.00000000
  eigenvalues    EBANDS =      -110.13905788
  atomic energy  EATOM  =       197.04175453
  Solvation  Ediel_sol  =         0.00000000
  ---------------------------------------------------
  free energy    TOTEN  =       -24.67202878 eV

  energy without entropy =      -24.67202878  energy(sigma->0) =      -24.67202878


--------------------------------------------------------------------------------------------------------




--------------------------------------- Iteration      1(   7)  ---------------------------------------


    POTLOK:  cpu time    0.1202: real time    0.1228
    SETDIJ:  cpu time    0.0020: real time    0.0021
    EDDIAG:  cpu time    0.0351: real time    0.0363
  RMM-DIIS:  cpu time    0.1365: real time    0.1413
    ORTHCH:  cpu time    0.0014: real time    0.0014
       DOS:  cpu time    0.0002: real time    0.0002
    CHARGE:  cpu time    0.0166: real time    0.0171
    MIXING:  cpu time    0.0042: real time    0.0043
    --------------------------------------------
      LOOP:  cpu time    0.3163: real time    0.3255

 eigenvalue-minimisations  :    64
 total energy-change (2. order) : 0.5137899E+00  (-0.1323156E+00)
 number of electron       8.0000001 magnetization 
 augmentation part        0.1907433 magnetization 

 Broyden mixing:
  rms(total) = 0.23126E+00    rms(broyden)= 0.23121E+00
  rms(prec ) = 0.27983E+00
  weight for this iteration     100.00

 eigenvalues of (default mixing * dielectric matrix)
  average eigenvalue GAMMA=   1.8455
  1.4704  2.2207

 Free energy of the ion-electron system (eV)
  ---------------------------------------------------
  alpha Z        PSCENC =         0.24652859
  Ewald energy   TEWEN  =       130.18252280
  -Hartree energ DENC   =      -276.56384410
  -exchange      EXHF   =         0.00000000
  -V(xc)+E(xc)   XCENC  =        24.16505590
  PAW double counting   =       374.25149505     -375.07906434
  entropy T*S    EENTRO =        -0.00000000
  eigenvalues    EBANDS =       -98.40268730
  atomic energy  EATOM  =       197.04175453
  Solvation  Ediel_sol  =         0.00000000
  ---------------------------------------------------
  free energy    TOTEN  =       -24.15823886 eV

  energy without entropy =      -24.15823886  energy(sigma->0) =      -24.15823886


--------------------------------------------------------------------------------------------------------




--------------------------------------- Iteration      1(   8)  ---------------------------------------


    POTLOK:  cpu time    0.1186: real time    0.1225
    SETDIJ:  cpu time    0.0021: real time    0.0021
    EDDIAG:  cpu time    0.0352: real time    0.0364
  RMM-DIIS:  cpu time    0.1368: real time    0.1418
    ORTHCH:  cpu time    0.0016: real time    0.0016
       DOS:  cpu time    0.0002: real time    0.0002
    CHARGE:  cpu time    0.0173: real time    0.0178
    MIXING:  cpu time    0.0042: real time    0.0043
    --------------------------------------------
      LOOP:  cpu time    0.3160: real time    0.3267

 eigenvalue-minimisations  :    64
 total energy-change (2. order) : 0.1479132E+00  (-0.1623754E-01)
 number of electron       8.0000001 magnetization 
 augmentation part        0.1893416 magnetization 

 Broyden mixing:
  rms(total) = 0.22462E-01    rms(broyden)= 0.22441E-01
  rms(prec ) = 0.53383E-01
  weight for this iteration     100.00

 eigenvalues of (default mixing * dielectric matrix)
  average eigenvalue GAMMA=   1.5545
  2.2481  0.9954  1.4199

 Free energy of the ion-electron system (eV)
  ---------------------------------------------------
  alpha Z        PSCENC =         0.24652859
  Ewald energy   TEWEN  =       130.18252280
  -Hartree energ DENC   =      -281.96166588
  -exchange      EXHF   =         0.00000000
  -V(xc)+E(xc)   XCENC  =        24.70113670
  PAW double counting   =       487.45566900     -488.25062967
  entropy T*S    EENTRO =        -0.00000000
  eigenvalues    EBANDS =       -93.42564171
  atomic energy  EATOM  =       197.04175453
  Solvation  Ediel_sol  =         0.00000000
  ---------------------------------------------------
  free energy    TOTEN  =       -24.01032563 eV

  energy without entropy =      -24.01032563  energy(sigma->0) =      -24.01032563


--------------------------------------------------------------------------------------------------------




--------------------------------------- Iteration      1(   9)  ---------------------------------------


    POTLOK:  cpu time    0.1183: real time    0.1223
    SETDIJ:  cpu time    0.0018: real time    0.0019
    EDDIAG:  cpu time    0.0348: real time    0.0359
  RMM-DIIS:  cpu time    0.1404: real time    0.1456
    ORTHCH:  cpu time    0.0015: real time    0.0015
       DOS:  cpu time    0.0002: real time    0.0002
    CHARGE:  cpu time    0.0170: real time    0.0175
    MIXING:  cpu time    0.0044: real time    0.0044
    --------------------------------------------
      LOOP:  cpu time    0.3183: real time    0.3293

 eigenvalue-minimisations  :    64
 total energy-change (2. order) : 0.5772366E-02  (-0.1134512E-02)
 number of electron       8.0000001 magnetization 
 augmentation part        0.1887558 magnetization 

 Broyden mixing:
  rms(total) = 0.19843E-01    rms(broyden)= 0.19839E-01
  rms(prec ) = 0.41068E-01
  weight for this iteration     100.00

 eigenvalues of (default mixing * dielectric matrix)
  average eigenvalue GAMMA=   2.1101
  3.1680  2.8835  1.0011  1.3877

 Free energy of the ion-electron system (eV)
  ---------------------------------------------------
  alpha Z        PSCENC =         0.24652859
  Ewald energy   TEWEN  =       130.18252280
  -Hartree energ DENC   =      -283.24413115
  -exchange      EXHF   =         0.00000000
  -V(xc)+E(xc)   XCENC  =        24.77282335
  PAW double counting   =       491.43773277     -492.23532480
  entropy T*S    EENTRO =        -0.00000000
  eigenvalues    EBANDS =       -92.20645936
  atomic energy  EATOM  =       197.04175453
  Solvation  Ediel_sol  =         0.00000000
  ---------------------------------------------------
  free energy    TOTEN  =       -24.00455326 eV

  energy without entropy =      -24.00455326  energy(sigma->0) =      -24.00455326


--------------------------------------------------------------------------------------------------------




--------------------------------------- Iteration      1(  10)  ---------------------------------------


    POTLOK:  cpu time    0.1161: real time    0.1189
    SETDIJ:  cpu time    0.0020: real time    0.0020
    EDDIAG:  cpu time    0.0346: real time    0.0358
  RMM-DIIS:  cpu time    0.1392: real time    0.1443
    ORTHCH:  cpu time    0.0016: real time    0.0016
       DOS:  cpu time    0.0002: real time    0.0002
    CHARGE:  cpu time    0.0170: real time    0.0178
    MIXING:  cpu time    0.0048: real time    0.0059
    --------------------------------------------
      LOOP:  cpu time    0.3155: real time    0.3265

 eigenvalue-minimisations  :    64
 total energy-change (2. order) : 0.5990674E-02  (-0.2450111E-02)
 number of electron       8.0000001 magnetization 
 augmentation part        0.1876986 magnetization 

 Broyden mixing:
  rms(total) = 0.28543E-01    rms(broyden)= 0.28542E-01
  rms(prec ) = 0.36219E-01
  weight for this iteration     100.00

 eigenvalues of (default mixing * dielectric matrix)
  average eigenvalue GAMMA=   1.7791
  3.0745  2.4569  1.1966  1.1966  0.9708

 Free energy of the ion-electron system (eV)
  ---------------------------------------------------
  alpha Z        PSCENC =         0.24652859
  Ewald energy   TEWEN  =       130.18252280
  -Hartree energ DENC   =      -285.45994456
  -exchange      EXHF   =         0.00000000
  -V(xc)+E(xc)   XCENC  =        24.84243726
  PAW double counting   =       474.67618625     -475.47747959
  entropy T*S    EENTRO =        -0.00000000
  eigenvalues    EBANDS =       -90.05056787
  atomic energy  EATOM  =       197.04175453
  Solvation  Ediel_sol  =         0.00000000
  ---------------------------------------------------
  free energy    TOTEN  =       -23.99856259 eV

  energy without entropy =      -23.99856259  energy(sigma->0) =      -23.99856259


--------------------------------------------------------------------------------------------------------




--------------------------------------- Iteration      1(  11)  ---------------------------------------


    POTLOK:  cpu time    0.1178: real time    0.1215
    SETDIJ:  cpu time    0.0021: real time    0.0021
    EDDIAG:  cpu time    0.0344: real time    0.0357
  RMM-DIIS:  cpu time    0.1382: real time    0.1429
    ORTHCH:  cpu time    0.0013: real time    0.0014
       DOS:  cpu time    0.0002: real time    0.0002
    CHARGE:  cpu time    0.0165: real time    0.0170
    MIXING:  cpu time    0.0048: real time    0.0049
    --------------------------------------------
      LOOP:  cpu time    0.3154: real time    0.3257

 eigenvalue-minimisations  :    64
 total energy-change (2. order) :-0.4157012E-03  (-0.6749269E-03)
 number of electron       8.0000001 magnetization 
 augmentation part        0.1880216 magnetization 

 Broyden mixing:
  rms(total) = 0.63972E-02    rms(broyden)= 0.63944E-02
  rms(prec ) = 0.12891E-01
  weight for this iteration     100.00

 eigenvalues of (default mixing * dielectric matrix)
  average eigenvalue GAMMA=   2.2798
  4.8075  3.1252  2.4310  1.3087  1.0031  1.0031

 Free energy of the ion-electron system (eV)
  ---------------------------------------------------
  alpha Z        PSCENC =         0.24652859
  Ewald energy   TEWEN  =       130.18252280
  -Hartree energ DENC   =      -285.35683475
  -exchange      EXHF   =         0.00000000
  -V(xc)+E(xc)   XCENC  =        24.85611976
  PAW double counting   =       483.91830437     -484.71247504
  entropy T*S    EENTRO =        -0.00000000
  eigenvalues    EBANDS =       -90.17489856
  atomic energy  EATOM  =       197.04175453
  Solvation  Ediel_sol  =         0.00000000
  ---------------------------------------------------
  free energy    TOTEN  =       -23.99897829 eV

  energy without entropy =      -23.99897829  energy(sigma->0) =      -23.99897829


--------------------------------------------------------------------------------------------------------




--------------------------------------- Iteration      1(  12)  ---------------------------------------


    POTLOK:  cpu time    0.1089: real time    0.1131
    SETDIJ:  cpu time    0.0023: real time    0.0023
    EDDIAG:  cpu time    0.0353: real time    0.0366
  RMM-DIIS:  cpu time    0.1406: real time    0.1450
    ORTHCH:  cpu time    0.0014: real time    0.0014
       DOS:  cpu time    0.0002: real time    0.0002
    CHARGE:  cpu time    0.0161: real time    0.0165
    MIXING:  cpu time    0.0052: real time    0.0053
    --------------------------------------------
      LOOP:  cpu time    0.3099: real time    0.3205

 eigenvalue-minimisations  :    64
 total energy-change (2. order) :-0.1008981E-01  (-0.4662396E-03)
 number of electron       8.0000001 magnetization 
 augmentation part        0.1883064 magnetization 

 Broyden mixing:
  rms(total) = 0.13358E-01    rms(broyden)= 0.13356E-01
  rms(prec ) = 0.17419E-01
  weight for this iteration     100.00

 eigenvalues of (default mixing * dielectric matrix)
  average eigenvalue GAMMA=   2.0197
  4.8098  2.9368  2.4398  1.2618  0.9915  0.9915  0.7070

 Free energy of the ion-electron system (eV)
  ---------------------------------------------------
  alpha Z        PSCENC =         0.24652859
  Ewald energy   TEWEN  =       130.18252280
  -Hartree energ DENC   =      -285.52907301
  -exchange      EXHF   =         0.00000000
  -V(xc)+E(xc)   XCENC  =        24.84811265
  PAW double counting   =       481.55628111     -482.34843884
  entropy T*S    EENTRO =        -0.00000000
  eigenvalues    EBANDS =       -90.00675593
  atomic energy  EATOM  =       197.04175453
  Solvation  Ediel_sol  =         0.00000000
  ---------------------------------------------------
  free energy    TOTEN  =       -24.00906810 eV

  energy without entropy =      -24.00906810  energy(sigma->0) =      -24.00906810


--------------------------------------------------------------------------------------------------------




--------------------------------------- Iteration      1(  13)  ---------------------------------------


    POTLOK:  cpu time    0.1075: real time    0.1115
    SETDIJ:  cpu time    0.0019: real time    0.0019
    EDDIAG:  cpu time    0.0363: real time    0.0374
  RMM-DIIS:  cpu time    0.1366: real time    0.1420
    ORTHCH:  cpu time    0.0015: real time    0.0015
       DOS:  cpu time    0.0002: real time    0.0002
    CHARGE:  cpu time    0.0157: real time    0.0161
    MIXING:  cpu time    0.0050: real time    0.0051
    --------------------------------------------
      LOOP:  cpu time    0.3047: real time    0.3158

 eigenvalue-minimisations  :    64
 total energy-change (2. order) :-0.3400612E-03  (-0.8187895E-04)
 number of electron       8.0000001 magnetization 
 augmentation part        0.1880911 magnetization 

 Broyden mixing:
  rms(total) = 0.64182E-02    rms(broyden)= 0.64181E-02
  rms(prec ) = 0.84131E-02
  weight for this iteration     100.00

 eigenvalues of (default mixing * dielectric matrix)
  average eigenvalue GAMMA=   2.4009
  6.0683  3.9655  2.5440  2.3115  1.2238  1.2238  0.9986  0.8718

 Free energy of the ion-electron system (eV)
  ---------------------------------------------------
  alpha Z        PSCENC =         0.24652859
  Ewald energy   TEWEN  =       130.18252280
  -Hartree energ DENC   =      -285.71875434
  -exchange      EXHF   =         0.00000000
  -V(xc)+E(xc)   XCENC  =        24.85403586
  PAW double counting   =       481.42795875     -482.22248243
  entropy T*S    EENTRO =        -0.00000000
  eigenvalues    EBANDS =       -89.82097193
  atomic energy  EATOM  =       197.04175453
  Solvation  Ediel_sol  =         0.00000000
  ---------------------------------------------------
  free energy    TOTEN  =       -24.00940816 eV

  energy without entropy =      -24.00940816  energy(sigma->0) =      -24.00940816


--------------------------------------------------------------------------------------------------------




--------------------------------------- Iteration      1(  14)  ---------------------------------------


    POTLOK:  cpu time    0.1112: real time    0.1144
    SETDIJ:  cpu time    0.0020: real time    0.0020
    EDDIAG:  cpu time    0.0350: real time    0.0362
  RMM-DIIS:  cpu time    0.1378: real time    0.1419
    ORTHCH:  cpu time    0.0016: real time    0.0016
       DOS:  cpu time    0.0002: real time    0.0002
    CHARGE:  cpu time    0.0157: real time    0.0162
    MIXING:  cpu time    0.0052: real time    0.0054
    --------------------------------------------
      LOOP:  cpu time    0.3087: real time    0.3180

 eigenvalue-minimisations  :    64
 total energy-change (2. order) :-0.2824675E-02  (-0.2181012E-03)
 number of electron       8.0000001 magnetization 
 augmentation part        0.1878620 magnetization 

 Broyden mixing:
  rms(total) = 0.46637E-02    rms(broyden)= 0.46618E-02
  rms(prec ) = 0.60987E-02
  weight for this iteration     100.00

 eigenvalues of (default mixing * dielectric matrix)
  average eigenvalue GAMMA=   2.3358
  6.5106  4.1603  2.4456  2.4456  1.2193  1.2193  0.9158  0.9995  1.1058

 Free energy of the ion-electron system (eV)
  ---------------------------------------------------
  alpha Z        PSCENC =         0.24652859
  Ewald energy   TEWEN  =       130.18252280
  -Hartree energ DENC   =      -285.78658505
  -exchange      EXHF   =         0.00000000
  -V(xc)+E(xc)   XCENC  =        24.84657902
  PAW double counting   =       480.39075644     -481.18761917
  entropy T*S    EENTRO =        -0.00000000
  eigenvalues    EBANDS =       -89.74617000
  atomic energy  EATOM  =       197.04175453
  Solvation  Ediel_sol  =         0.00000000
  ---------------------------------------------------
  free energy    TOTEN  =       -24.01223284 eV

  energy without entropy =      -24.01223284  energy(sigma->0) =      -24.01223284


--------------------------------------------------------------------------------------------------------




--------------------------------------- Iteration      1(  15)  ---------------------------------------


    POTLOK:  cpu time    0.1068: real time    0.1097
    SETDIJ:  cpu time    0.0022: real time    0.0022
    EDDIAG:  cpu time    0.0336: real time    0.0349
  RMM-DIIS:  cpu time    0.1343: real time    0.1390
    ORTHCH:  cpu time    0.0014: real time    0.0014
       DOS:  cpu time    0.0002: real time    0.0002
    CHARGE:  cpu time    0.0159: real time    0.0163
    MIXING:  cpu time    0.0055: real time    0.0056
    --------------------------------------------
      LOOP:  cpu time    0.2999: real time    0.3094

 eigenvalue-minimisations  :    64
 total energy-change (2. order) :-0.2110325E-03  (-0.1903109E-04)
 number of electron       8.0000001 magnetization 
 augmentation part        0.1878888 magnetization 

 Broyden mixing:
  rms(total) = 0.13523E-02    rms(broyden)= 0.13523E-02
  rms(prec ) = 0.17451E-02
  weight for this iteration     100.00

 eigenvalues of (default mixing * dielectric matrix)
  average eigenvalue GAMMA=   2.5624
  7.5108  4.9519  3.0957  2.5109  2.0506  1.3034  1.3034  1.0037  1.0037  0.8903

 Free energy of the ion-electron system (eV)
  ---------------------------------------------------
  alpha Z        PSCENC =         0.24652859
  Ewald energy   TEWEN  =       130.18252280
  -Hartree energ DENC   =      -285.68955806
  -exchange      EXHF   =         0.00000000
  -V(xc)+E(xc)   XCENC  =        24.84234451
  PAW double counting   =       480.50489234     -481.30040938
  entropy T*S    EENTRO =        -0.00000000
  eigenvalues    EBANDS =       -89.84051921
  atomic energy  EATOM  =       197.04175453
  Solvation  Ediel_sol  =         0.00000000
  ---------------------------------------------------
  free energy    TOTEN  =       -24.01244387 eV

  energy without entropy =      -24.01244387  energy(sigma->0) =      -24.01244387


--------------------------------------------------------------------------------------------------------




--------------------------------------- Iteration      1(  16)  ---------------------------------------


    POTLOK:  cpu time    0.1081: real time    0.1113
    SETDIJ:  cpu time    0.0017: real time    0.0023
    EDDIAG:  cpu time    0.0341: real time    0.0351
  RMM-DIIS:  cpu time    0.1367: real time    0.1412
    ORTHCH:  cpu time    0.0014: real time    0.0014
       DOS:  cpu time    0.0002: real time    0.0002
    CHARGE:  cpu time    0.0155: real time    0.0159
    MIXING:  cpu time    0.0058: real time    0.0059
    --------------------------------------------
      LOOP:  cpu time    0.3035: real time    0.3134

 eigenvalue-minimisations  :    64
 total energy-change (2. order) :-0.2055726E-03  (-0.1239182E-04)
 number of electron       8.0000001 magnetization 
 augmentation part        0.1879545 magnetization 

 Broyden mixing:
  rms(total) = 0.12459E-02    rms(broyden)= 0.12454E-02
  rms(prec ) = 0.16701E-02
  weight for this iteration     100.00

 eigenvalues of (default mixing * dielectric matrix)
  average eigenvalue GAMMA=   2.4770
  7.6535  4.7486  3.5004  2.3468  2.3468  1.2694  1.2694  0.9128  0.9638  1.1176
  1.1176

 Free energy of the ion-electron system (eV)
  ---------------------------------------------------
  alpha Z        PSCENC =         0.24652859
  Ewald energy   TEWEN  =       130.18252280
  -Hartree energ DENC   =      -285.67789415
  -exchange      EXHF   =         0.00000000
  -V(xc)+E(xc)   XCENC  =        24.84282641
  PAW double counting   =       480.62975303     -481.42472849
  entropy T*S    EENTRO =        -0.00000000
  eigenvalues    EBANDS =       -89.85341216
  atomic energy  EATOM  =       197.04175453
  Solvation  Ediel_sol  =         0.00000000
  ---------------------------------------------------
  free energy    TOTEN  =       -24.01264944 eV

  energy without entropy =      -24.01264944  energy(sigma->0) =      -24.01264944


--------------------------------------------------------------------------------------------------------




--------------------------------------- Iteration      1(  17)  ---------------------------------------


    POTLOK:  cpu time    0.1106: real time    0.1138
    SETDIJ:  cpu time    0.0019: real time    0.0019
    EDDIAG:  cpu time    0.0372: real time    0.0385
  RMM-DIIS:  cpu time    0.1398: real time    0.1447
    ORTHCH:  cpu time    0.0015: real time    0.0016
       DOS:  cpu time    0.0002: real time    0.0002
    CHARGE:  cpu time    0.0168: real time    0.0174
    MIXING:  cpu time    0.0061: real time    0.0062
    --------------------------------------------
      LOOP:  cpu time    0.3140: real time    0.3244

 eigenvalue-minimisations  :    64
 total energy-change (2. order) :-0.1876254E-04  (-0.3073078E-05)
 number of electron       8.0000001 magnetization 
 augmentation part        0.1879178 magnetization 

 Broyden mixing:
  rms(total) = 0.19111E-03    rms(broyden)= 0.19105E-03
  rms(prec ) = 0.26287E-03
  weight for this iteration     100.00

 eigenvalues of (default mixing * dielectric matrix)
  average eigenvalue GAMMA=   2.5798
  8.3724  5.1093  4.0644  2.5513  2.5513  1.8862  1.3193  1.3193  1.0242  0.9588
  0.9373  0.8636

 Free energy of the ion-electron system (eV)
  ---------------------------------------------------
  alpha Z        PSCENC =         0.24652859
  Ewald energy   TEWEN  =       130.18252280
  -Hartree energ DENC   =      -285.72384259
  -exchange      EXHF   =         0.00000000
  -V(xc)+E(xc)   XCENC  =        24.84505099
  PAW double counting   =       480.64242544     -481.43781778
  entropy T*S    EENTRO =        -0.00000000
  eigenvalues    EBANDS =       -89.80929019
  atomic energy  EATOM  =       197.04175453
  Solvation  Ediel_sol  =         0.00000000
  ---------------------------------------------------
  free energy    TOTEN  =       -24.01266820 eV

  energy without entropy =      -24.01266820  energy(sigma->0) =      -24.01266820


--------------------------------------------------------------------------------------------------------




--------------------------------------- Iteration      1(  18)  ---------------------------------------


    POTLOK:  cpu time    0.1126: real time    0.1165
    SETDIJ:  cpu time    0.0018: real time    0.0019
    EDDIAG:  cpu time    0.0355: real time    0.0367
  RMM-DIIS:  cpu time    0.1125: real time    0.1160
    ORTHCH:  cpu time    0.0014: real time    0.0014
       DOS:  cpu time    0.0002: real time    0.0002
    CHARGE:  cpu time    0.0161: real time    0.0167
    MIXING:  cpu time    0.0062: real time    0.0063
    --------------------------------------------
      LOOP:  cpu time    0.2864: real time    0.2958

 eigenvalue-minimisations  :    48
 total energy-change (2. order) :-0.1641549E-04  (-0.1069733E-06)
 number of electron       8.0000001 magnetization 
 augmentation part        0.1879154 magnetization 

 Broyden mixing:
  rms(total) = 0.64377E-04    rms(broyden)= 0.64321E-04
  rms(prec ) = 0.94225E-04
  weight for this iteration     100.00

 eigenvalues of (default mixing * dielectric matrix)
  average eigenvalue GAMMA=   2.5528
  8.3699  5.3556  3.7448  3.1054  2.4607  2.1708  1.3092  1.3092  1.4260  0.8885
  1.0771  0.9843  0.9843

 Free energy of the ion-electron system (eV)
  ---------------------------------------------------
  alpha Z        PSCENC =         0.24652859
  Ewald energy   TEWEN  =       130.18252280
  -Hartree energ DENC   =      -285.71651797
  -exchange      EXHF   =         0.00000000
  -V(xc)+E(xc)   XCENC  =        24.84448595
  PAW double counting   =       480.53998233     -481.33536300
  entropy T*S    EENTRO =        -0.00000000
  eigenvalues    EBANDS =       -89.81607786
  atomic energy  EATOM  =       197.04175453
  Solvation  Ediel_sol  =         0.00000000
  ---------------------------------------------------
  free energy    TOTEN  =       -24.01268462 eV

  energy without entropy =      -24.01268462  energy(sigma->0) =      -24.01268462


--------------------------------------------------------------------------------------------------------




--------------------------------------- Iteration      1(  19)  ---------------------------------------


    POTLOK:  cpu time    0.1110: real time    0.1146
    SETDIJ:  cpu time    0.0021: real time    0.0021
    EDDIAG:  cpu time    0.0345: real time    0.0357
  RMM-DIIS:  cpu time    0.1108: real time    0.1140
    ORTHCH:  cpu time    0.0013: real time    0.0013
       DOS:  cpu time    0.0002: real time    0.0002
    CHARGE:  cpu time    0.0158: real time    0.0162
    MIXING:  cpu time    0.0065: real time    0.0067
    --------------------------------------------
      LOOP:  cpu time    0.2821: real time    0.2907

 eigenvalue-minimisations  :    48
 total energy-change (2. order) :-0.2644673E-05  (-0.3729377E-07)
 number of electron       8.0000001 magnetization 
 augmentation part        0.1879145 magnetization 

 Broyden mixing:
  rms(total) = 0.71535E-04    rms(broyden)= 0.71509E-04
  rms(prec ) = 0.95007E-04
  weight for this iteration     100.00

 eigenvalues of (default mixing * dielectric matrix)
  average eigenvalue GAMMA=   2.5328
  8.4073  5.4683  3.9901  3.0048  2.6588  2.4539  2.0410  1.3071  1.3071  0.9932
  0.9932  1.0152  0.9099  0.9099

 Free energy of the ion-electron system (eV)
  ---------------------------------------------------
  alpha Z        PSCENC =         0.24652859
  Ewald energy   TEWEN  =       130.18252280
  -Hartree energ DENC   =      -285.71433298
  -exchange      EXHF   =         0.00000000
  -V(xc)+E(xc)   XCENC  =        24.84427694
  PAW double counting   =       480.52517048     -481.32055851
  entropy T*S    EENTRO =        -0.00000000
  eigenvalues    EBANDS =       -89.81804912
  atomic energy  EATOM  =       197.04175453
  Solvation  Ediel_sol  =         0.00000000
  ---------------------------------------------------
  free energy    TOTEN  =       -24.01268726 eV

  energy without entropy =      -24.01268726  energy(sigma->0) =      -24.01268726


--------------------------------------------------------------------------------------------------------




--------------------------------------- Iteration      1(  20)  ---------------------------------------


    POTLOK:  cpu time    0.1134: real time    0.1162
    SETDIJ:  cpu time    0.0018: real time    0.0018
    EDDIAG:  cpu time    0.0339: real time    0.0349
  RMM-DIIS:  cpu time    0.1124: real time    0.1160
    ORTHCH:  cpu time    0.0014: real time    0.0015
       DOS:  cpu time    0.0002: real time    0.0002
    CHARGE:  cpu time    0.0159: real time    0.0164
    MIXING:  cpu time    0.0066: real time    0.0068
    --------------------------------------------
      LOOP:  cpu time    0.2857: real time    0.2938

 eigenvalue-minimisations  :    44
 total energy-change (2. order) :-0.1425076E-05  (-0.7581970E-08)
 number of electron       8.0000001 magnetization 
 augmentation part        0.1879153 magnetization 

 Broyden mixing:
  rms(total) = 0.30243E-04    rms(broyden)= 0.30236E-04
  rms(prec ) = 0.37464E-04
  weight for this iteration     100.00

 eigenvalues of (default mixing * dielectric matrix)
  average eigenvalue GAMMA=   2.4834
  8.4344  5.5493  3.9561  3.8162  2.4801  2.4801  1.9887  1.3149  1.3149  1.0403
  0.8865  0.9590  0.9590  1.0359  1.0359

 Free energy of the ion-electron system (eV)
  ---------------------------------------------------
  alpha Z        PSCENC =         0.24652859
  Ewald energy   TEWEN  =       130.18252280
  -Hartree energ DENC   =      -285.71245604
  -exchange      EXHF   =         0.00000000
  -V(xc)+E(xc)   XCENC  =        24.84418303
  PAW double counting   =       480.53479753     -481.33015609
  entropy T*S    EENTRO =        -0.00000000
  eigenvalues    EBANDS =       -89.81986304
  atomic energy  EATOM  =       197.04175453
  Solvation  Ediel_sol  =         0.00000000
  ---------------------------------------------------
  free energy    TOTEN  =       -24.01268869 eV

  energy without entropy =      -24.01268869  energy(sigma->0) =      -24.01268869


--------------------------------------------------------------------------------------------------------




--------------------------------------- Iteration      1(  21)  ---------------------------------------


    POTLOK:  cpu time    0.1164: real time    0.1191
    SETDIJ:  cpu time    0.0018: real time    0.0019
    EDDIAG:  cpu time    0.0354: real time    0.0365
  RMM-DIIS:  cpu time    0.1086: real time    0.1119
    ORTHCH:  cpu time    0.0015: real time    0.0015
       DOS:  cpu time    0.0002: real time    0.0002
    --------------------------------------------
      LOOP:  cpu time    0.2638: real time    0.2710

 eigenvalue-minimisations  :    36
 total energy-change (2. order) :-0.2003211E-06  (-0.1854783E-08)
 number of electron       8.0000001 magnetization 
 augmentation part        0.1879153 magnetization 

 Free energy of the ion-electron system (eV)
  ---------------------------------------------------
  alpha Z        PSCENC =         0.24652859
  Ewald energy   TEWEN  =       130.18252280
  -Hartree energ DENC   =      -285.71201308
  -exchange      EXHF   =         0.00000000
  -V(xc)+E(xc)   XCENC  =        24.84416823
  PAW double counting   =       480.53724488     -481.33259871
  entropy T*S    EENTRO =        -0.00000000
  eigenvalues    EBANDS =       -89.82029614
  atomic energy  EATOM  =       197.04175453
  Solvation  Ediel_sol  =         0.00000000
  ---------------------------------------------------
  free energy    TOTEN  =       -24.01268889 eV

  energy without entropy =      -24.01268889  energy(sigma->0) =      -24.01268889


--------------------------------------------------------------------------------------------------------




 average (electrostatic) potential at core
  the test charge radii are     0.5201  0.6991
  (the norm of the test charge is              1.0000)
       1 -41.4336       2 -41.5011       3 -41.6791       4 -41.5930       5 -57.9028
 
 
 
 E-fermi :  -8.3314     XC(G=0):  -0.7049     alpha+bet : -0.2144


 k-point     1 :       0.2500    0.2500    0.2500
  band No.  band energies     occupation 
      1     -16.9526      2.00000
      2      -9.3720      2.00000
      3      -9.3322      2.00000
      4      -9.2534      2.00000
      5      -0.3011      0.00000
      6       0.5834      0.00000
      7       0.6805      0.00000
      8       0.7180      0.00000

 k-point     2 :      -0.2500    0.2500    0.2500
  band No.  band energies     occupation 
      1     -16.9525      2.00000
      2      -9.3720      2.00000
      3      -9.3322      2.00000
      4      -9.2535      2.00000
      5      -0.3036      0.00000
      6       0.5845      0.00000
      7       0.6868      0.00000
      8       0.7230      0.00000

 k-point     3 :       0.2500   -0.2500    0.2500
  band No.  band energies     occupation 
      1     -16.9526      2.00000
      2      -9.3720      2.00000
      3      -9.3322      2.00000
      4      -9.2536      2.00000
      5      -0.2981      0.00000
      6       0.5749      0.00000
      7       0.6735      0.00000
      8       0.7090      0.00000

 k-point     4 :      -0.2500   -0.2500    0.2500
  band No.  band energies     occupation 
      1     -16.9525      2.00000
      2      -9.3719      2.00000
      3      -9.3321      2.00000
      4      -9.2534      2.00000
      5      -0.2984      0.00000
      6       0.5807      0.00000
      7       0.6796      0.00000
      8       0.7027      0.00000


--------------------------------------------------------------------------------------------------------


 soft charge-density along one line, spin component           1
         0         1         2         3         4         5         6         7         8         9
 total charge-density along one line
 
 pseudopotential strength for first ion, spin component:           1
 -2.340  -4.033  -0.001  -0.001   0.001
 -4.033  -6.863  -0.003  -0.004   0.002
 -0.001  -0.003  -0.338   0.002  -0.001
 -0.001  -0.004   0.002  -0.336  -0.001
  0.001   0.002  -0.001  -0.001  -0.339
 total augmentation occupancy for first ion, spin component:           1
  3.520  -0.634   0.234   0.323  -0.137
 -0.634   0.128  -0.044  -0.060   0.025
  0.234  -0.044   0.022   0.018  -0.008
  0.323  -0.060   0.018   0.033  -0.011
 -0.137   0.025  -0.008  -0.011   0.013


------------------------ aborting loop because EDIFF is reached ----------------------------------------


    CHARGE:  cpu time    0.0158: real time    0.0162
    FORLOC:  cpu time    0.0103: real time    0.0105
    FORNL :  cpu time    0.0173: real time    0.0183
    STRESS:  cpu time    0.1382: real time    0.1422
    FORCOR:  cpu time    0.1140: real time    0.1167
    FORHAR:  cpu time    0.0355: real time    0.0362
    MIXING:  cpu time    0.0068: real time    0.0069
    OFIELD:  cpu time    0.0000: real time    0.0000

  FORCE on cell =-STRESS in cart. coord.  units (eV):
  Direction    XX          YY          ZZ          XY          YZ          ZX
  --------------------------------------------------------------------------------------
  Alpha Z     0.24653     0.24653     0.24653
  Ewald      42.66638    44.29968    43.21642     0.88265     0.61321     0.02754
  Hartree    94.55824    96.32653    94.82747    -0.07088     0.59635    -0.18499
  E(xc)     -27.31877   -27.32929   -27.31631     0.00084     0.00607    -0.00129
  Local    -195.92792  -199.19993  -196.68592    -0.45180    -1.32034     0.26690
  n-local   -16.11144   -16.16911   -16.10955    -0.03755     0.04192    -0.01942
  augment     0.11221     0.10943     0.11167    -0.00370     0.00182    -0.00127
  Kinetic   101.66583   102.21073   101.54962    -0.01992    -0.33233     0.07598
  Fock        0.00000     0.00000     0.00000     0.00000     0.00000     0.00000
  -------------------------------------------------------------------------------------
  Total      -0.10894     0.49456    -0.16007     0.29965    -0.39330     0.16345
  in kB      -0.17762     0.80636    -0.26098     0.48856    -0.64126     0.26650
  external pressure =        0.12 kB  Pullay stress =        0.00 kB

  kinetic pressure (ideal gas correction) =      0.00 kB
  total pressure  =      0.12 kB
  Total+kin.    -0.178       0.806      -0.261       0.489      -0.641       0.266

 VOLUME and BASIS-vectors are now :
 -----------------------------------------------------------------------------
  energy-cutoff  :      400.00
  volume of cell :      982.65
      direct lattice vectors                 reciprocal lattice vectors
    10.007918674  0.000000000  0.000000000     0.099920876  0.000701314  0.000801787
    -0.068947557  9.823410975  0.000000000     0.000000000  0.101797635 -0.002217989
    -0.081732248  0.217777801  9.995207852     0.000000000  0.000000000  0.100047944

  length of vectors
    10.007918674  9.823652933  9.997914150     0.099926554  0.101821795  0.100047944


 FORCES acting on ions
    electron-ion (+dipol)            ewald-force                    non-local-force                 convergence-correction
 -----------------------------------------------------------------------------------------------
   -.171E+02 0.293E+02 0.403E+02   0.188E+02 -.322E+02 -.443E+02   -.175E+01 0.299E+01 0.414E+01   -.114E-05 0.115E-04 0.631E-05
   0.527E+02 -.586E+01 0.344E+01   -.583E+02 0.650E+01 -.383E+01   0.549E+01 -.608E+00 0.347E+00   0.720E-05 -.694E-07 0.182E-05
   -.241E+02 -.484E+02 0.141E+01   0.271E+02 0.544E+02 -.164E+01   -.263E+01 -.525E+01 0.133E+00   -.422E-05 -.172E-04 0.157E-05
   -.121E+02 0.237E+02 -.466E+02   0.135E+02 -.266E+02 0.520E+02   -.128E+01 0.250E+01 -.497E+01   -.142E-05 0.110E-04 -.768E-05
   0.864E+00 0.181E+01 0.188E+01   -.106E+01 -.219E+01 -.222E+01   -.101E+00 -.208E+00 -.118E+00   0.581E-05 0.148E-04 0.140E-04
 -----------------------------------------------------------------------------------------------
   0.274E+00 0.573E+00 0.476E+00   0.000E+00 0.711E-14 -.711E-14   -.274E+00 -.572E+00 -.476E+00   0.623E-05 0.199E-04 0.160E-04
 
 
 POSITION                                       TOTAL-FORCE (eV/Angst)
 -----------------------------------------------------------------------------------
      5.32982      4.07520      3.60478        -0.067263      0.076750      0.183785
      3.88703      4.80957      4.37952        -0.102873      0.029114     -0.041775
      5.44981      5.64706      4.42254         0.345328      0.811162     -0.090487
      5.21489      4.21106      5.38912         0.118391     -0.328805      0.404522
      4.97173      4.68823      4.44920        -0.293906     -0.587469     -0.456023
 -----------------------------------------------------------------------------------
    total drift:                               -0.000323      0.000752      0.000022


--------------------------------------------------------------------------------------------------------



  FREE ENERGIE OF THE ION-ELECTRON SYSTEM (eV)
  ---------------------------------------------------
  free  energy   TOTEN  =       -24.01268889 eV

  energy  without entropy=      -24.01268889  energy(sigma->0) =      -24.01268889
 


--------------------------------------------------------------------------------------------------------


    POTLOK:  cpu time    0.1181: real time    0.1213


--------------------------------------------------------------------------------------------------------


 stress matrix after NEB project (eV)
     -0.10894      0.29965      0.16345
      0.29965      0.49456     -0.39330
      0.16345     -0.39330     -0.16007
  FORCES: max atom, RMS     0.886241    0.594645
  FORCE total and by dimension    1.329668    0.811162
  Stress total and by dimension    0.907992    0.494559
           RANDOM_SEED =         581414468                0                0
           RANDOM_SEED =         581414468               30                0
   IONSTEP:  cpu time    0.0029: real time    0.0055

  ENERGY OF THE ELECTRON-ION-THERMOSTAT SYSTEM (eV)
  ---------------------------------------------------
% ion-electron   TOTEN  =       -24.012689  see above
  kinetic energy EKIN   =         0.000357
  kin. lattice  EKIN_LAT=         0.000000  (temperature    0.69 K)
  nose potential ES     =         0.000000
  nose kinetic   EPS    =         0.000000
  ---------------------------------------------------
  total energy   ETOTAL =       -24.012332 eV

  maximum distance moved by ions :      0.22E-03

    WAVPRE:  cpu time    0.0348: real time    0.0356
    FEWALD:  cpu time    0.0010: real time    0.0010
    ORTHCH:  cpu time    0.0077: real time    0.0078
     LOOP+:  cpu time    6.4478: real time    6.6912


--------------------------------------- Iteration      2(   1)  ---------------------------------------


    POTLOK:  cpu time    0.1191: real time    0.1231
    SETDIJ:  cpu time    0.0019: real time    0.0020
     EDDAV:  cpu time    0.1456: real time    0.1497
       DOS:  cpu time    0.0002: real time    0.0002
    CHARGE:  cpu time    0.0152: real time    0.0157
    MIXING:  cpu time    0.0044: real time    0.0051
    --------------------------------------------
      LOOP:  cpu time    0.2865: real time    0.2958

 eigenvalue-minimisations  :    72
 total energy-change (2. order) :-0.2737173E-02  (-0.3236490E-03)
 number of electron       8.0000001 magnetization 
 augmentation part        0.1876158 magnetization 

 Broyden mixing:
  rms(total) = 0.29337E-02    rms(broyden)= 0.29321E-02
  rms(prec ) = 0.36589E-02
  weight for this iteration     100.00

 Free energy of the ion-electron system (eV)
  ---------------------------------------------------
  alpha Z        PSCENC =         0.24652859
  Ewald energy   TEWEN  =       129.98989389
  -Hartree energ DENC   =      -285.60411924
  -exchange      EXHF   =         0.00000000
  -V(xc)+E(xc)   XCENC  =        24.83869097
  PAW double counting   =       480.53944574     -481.33479850
  entropy T*S    EENTRO =        -0.00000000
  eigenvalues    EBANDS =       -89.73282185
  atomic energy  EATOM  =       197.04175453
  Solvation  Ediel_sol  =         0.00000000
  ---------------------------------------------------
  free energy    TOTEN  =       -24.01542586 eV

  energy without entropy =      -24.01542586  energy(sigma->0) =      -24.01542586


--------------------------------------------------------------------------------------------------------




--------------------------------------- Iteration      2(   2)  ---------------------------------------


    POTLOK:  cpu time    0.1173: real time    0.1200
    SETDIJ:  cpu time    0.0019: real time    0.0019
    EDDIAG:  cpu time    0.0344: real time    0.0354
  RMM-DIIS:  cpu time    0.1368: real time    0.1415
    ORTHCH:  cpu time    0.0013: real time    0.0014
       DOS:  cpu time    0.0002: real time    0.0002
    CHARGE:  cpu time    0.0156: real time    0.0160
    MIXING:  cpu time    0.0040: real time    0.0041
    --------------------------------------------
      LOOP:  cpu time    0.3114: real time    0.3204

 eigenvalue-minimisations  :    64
 total energy-change (2. order) : 0.1540296E-04  (-0.8139315E-05)
 number of electron       8.0000001 magnetization 
 augmentation part        0.1876452 magnetization 

 Broyden mixing:
  rms(total) = 0.15457E-02    rms(broyden)= 0.15454E-02
  rms(prec ) = 0.18558E-02
  weight for this iteration     100.00

 eigenvalues of (default mixing * dielectric matrix)
  average eigenvalue GAMMA=   1.8242
  1.8242

 Free energy of the ion-electron system (eV)
  ---------------------------------------------------
  alpha Z        PSCENC =         0.24652859
  Ewald energy   TEWEN  =       129.98989389
  -Hartree energ DENC   =      -285.56536807
  -exchange      EXHF   =         0.00000000
  -V(xc)+E(xc)   XCENC  =        24.83656569
  PAW double counting   =       479.91086957     -480.70577041
  entropy T*S    EENTRO =        -0.00000000
  eigenvalues    EBANDS =       -89.76988426
  atomic energy  EATOM  =       197.04175453
  Solvation  Ediel_sol  =         0.00000000
  ---------------------------------------------------
  free energy    TOTEN  =       -24.01541046 eV

  energy without entropy =      -24.01541046  energy(sigma->0) =      -24.01541046


--------------------------------------------------------------------------------------------------------




--------------------------------------- Iteration      2(   3)  ---------------------------------------


    POTLOK:  cpu time    0.1114: real time    0.1145
    SETDIJ:  cpu time    0.0020: real time    0.0021
    EDDIAG:  cpu time    0.0332: real time    0.0341
  RMM-DIIS:  cpu time    0.1361: real time    0.1405
    ORTHCH:  cpu time    0.0015: real time    0.0015
       DOS:  cpu time    0.0002: real time    0.0002
    CHARGE:  cpu time    0.0159: real time    0.0164
    MIXING:  cpu time    0.0044: real time    0.0044
    --------------------------------------------
      LOOP:  cpu time    0.3046: real time    0.3136

 eigenvalue-minimisations  :    64
 total energy-change (2. order) : 0.2059451E-05  (-0.3454069E-05)
 number of electron       8.0000001 magnetization 
 augmentation part        0.1876889 magnetization 

 Broyden mixing:
  rms(total) = 0.51633E-03    rms(broyden)= 0.51597E-03
  rms(prec ) = 0.63569E-03
  weight for this iteration     100.00

 eigenvalues of (default mixing * dielectric matrix)
  average eigenvalue GAMMA=   1.4242
  1.0549  1.7936

 Free energy of the ion-electron system (eV)
  ---------------------------------------------------
  alpha Z        PSCENC =         0.24652859
  Ewald energy   TEWEN  =       129.98989389
  -Hartree energ DENC   =      -285.53862679
  -exchange      EXHF   =         0.00000000
  -V(xc)+E(xc)   XCENC  =        24.83507460
  PAW double counting   =       479.43580645     -480.23034693
  entropy T*S    EENTRO =        -0.00000000
  eigenvalues    EBANDS =       -89.79549275
  atomic energy  EATOM  =       197.04175453
  Solvation  Ediel_sol  =         0.00000000
  ---------------------------------------------------
  free energy    TOTEN  =       -24.01540840 eV

  energy without entropy =      -24.01540840  energy(sigma->0) =      -24.01540840


--------------------------------------------------------------------------------------------------------




--------------------------------------- Iteration      2(   4)  ---------------------------------------


    POTLOK:  cpu time    0.1098: real time    0.1132
    SETDIJ:  cpu time    0.0017: real time    0.0017
    EDDIAG:  cpu time    0.0339: real time    0.0349
  RMM-DIIS:  cpu time    0.1125: real time    0.1165
    ORTHCH:  cpu time    0.0015: real time    0.0015
       DOS:  cpu time    0.0002: real time    0.0002
    --------------------------------------------
      LOOP:  cpu time    0.2595: real time    0.2679

 eigenvalue-minimisations  :    48
 total energy-change (2. order) : 0.2970588E-06  (-0.8529844E-07)
 number of electron       8.0000001 magnetization 
 augmentation part        0.1876889 magnetization 

 Free energy of the ion-electron system (eV)
  ---------------------------------------------------
  alpha Z        PSCENC =         0.24652859
  Ewald energy   TEWEN  =       129.98989389
  -Hartree energ DENC   =      -285.54571403
  -exchange      EXHF   =         0.00000000
  -V(xc)+E(xc)   XCENC  =        24.83537797
  PAW double counting   =       479.40382770     -480.19845731
  entropy T*S    EENTRO =        -0.00000000
  eigenvalues    EBANDS =       -89.78861945
  atomic energy  EATOM  =       197.04175453
  Solvation  Ediel_sol  =         0.00000000
  ---------------------------------------------------
  free energy    TOTEN  =       -24.01540810 eV

  energy without entropy =      -24.01540810  energy(sigma->0) =      -24.01540810


--------------------------------------------------------------------------------------------------------




 average (electrostatic) potential at core
  the test charge radii are     0.5201  0.6991
  (the norm of the test charge is              1.0000)
       1 -41.4387       2 -41.5003       3 -41.6604       4 -41.5830       5 -57.9080
 
 
 
 E-fermi :  -8.3206     XC(G=0):  -0.6837     alpha+bet : -0.2144


 k-point     1 :       0.2500    0.2500    0.2500
  band No.  band energies     occupation 
      1     -16.9461      2.00000
      2      -9.3654      2.00000
      3      -9.3288      2.00000
      4      -9.2541      2.00000
      5      -0.2941      0.00000
      6       0.6025      0.00000
      7       0.6948      0.00000
      8       0.7323      0.00000

 k-point     2 :      -0.2500    0.2500    0.2500
  band No.  band energies     occupation 
      1     -16.9460      2.00000
      2      -9.3654      2.00000
      3      -9.3288      2.00000
      4      -9.2541      2.00000
      5      -0.2966      0.00000
      6       0.6032      0.00000
      7       0.7005      0.00000
      8       0.7383      0.00000

 k-point     3 :       0.2500   -0.2500    0.2500
  band No.  band energies     occupation 
      1     -16.9461      2.00000
      2      -9.3654      2.00000
      3      -9.3288      2.00000
      4      -9.2542      2.00000
      5      -0.2911      0.00000
      6       0.5925      0.00000
      7       0.6887      0.00000
      8       0.7243      0.00000

 k-point     4 :      -0.2500   -0.2500    0.2500
  band No.  band energies     occupation 
      1     -16.9461      2.00000
      2      -9.3653      2.00000
      3      -9.3287      2.00000
      4      -9.2540      2.00000
      5      -0.2914      0.00000
      6       0.5983      0.00000
      7       0.6948      0.00000
      8       0.7176      0.00000


--------------------------------------------------------------------------------------------------------


 soft charge-density along one line, spin component           1
         0         1         2         3         4         5         6         7         8         9
 total charge-density along one line
 
 pseudopotential strength for first ion, spin component:           1
 -2.340  -4.033  -0.001  -0.001   0.001
 -4.033  -6.863  -0.003  -0.004   0.002
 -0.001  -0.003  -0.338   0.002  -0.001
 -0.001  -0.004   0.002  -0.336  -0.001
  0.001   0.002  -0.001  -0.001  -0.339
 total augmentation occupancy for first ion, spin component:           1
  3.523  -0.635   0.235   0.324  -0.137
 -0.635   0.128  -0.044  -0.060   0.025
  0.235  -0.044   0.022   0.018  -0.008
  0.324  -0.060   0.018   0.034  -0.011
 -0.137   0.025  -0.008  -0.011   0.013


------------------------ aborting loop because EDIFF is reached ----------------------------------------


    CHARGE:  cpu time    0.0157: real time    0.0160
    FORLOC:  cpu time    0.0102: real time    0.0104
    FORNL :  cpu time    0.0171: real time    0.0172
    STRESS:  cpu time    0.1359: real time    0.1378
    FORCOR:  cpu time    0.1147: real time    0.1180
    FORHAR:  cpu time    0.0373: real time    0.0388
    MIXING:  cpu time    0.0053: real time    0.0053
    OFIELD:  cpu time    0.0000: real time    0.0000

  FORCE on cell =-STRESS in cart. coord.  units (eV):
  Direction    XX          YY          ZZ          XY          YZ          ZX
  --------------------------------------------------------------------------------------
  Alpha Z     0.24653     0.24653     0.24653
  Ewald      42.61608    44.21555    43.15823     0.82452     0.64180     0.00675
  Hartree    94.49737    96.29130    94.76365    -0.06429     0.58358    -0.18059
  E(xc)     -27.30941   -27.31947   -27.30700     0.00099     0.00581    -0.00120
  Local    -195.81751  -199.11355  -196.56580    -0.42826    -1.31596     0.27206
  n-local   -16.09298   -16.14565   -16.09114    -0.03423     0.03861    -0.01796
  augment     0.11245     0.11011     0.11193    -0.00336     0.00157    -0.00115
  Kinetic   101.61664   102.13797   101.50278    -0.02740    -0.31823     0.07157
  Fock        0.00000     0.00000     0.00000     0.00000     0.00000     0.00000
[...]

  energy without entropy =      -24.01576530  energy(sigma->0) =      -24.01576530


--------------------------------------------------------------------------------------------------------




--------------------------------------- Iteration     10(   3)  ---------------------------------------


    POTLOK:  cpu time    0.1212: real time    0.1228
    SETDIJ:  cpu time    0.0017: real time    0.0017
    EDDIAG:  cpu time    0.0348: real time    0.0352
  RMM-DIIS:  cpu time    0.1134: real time    0.1142
    ORTHCH:  cpu time    0.0013: real time    0.0013
       DOS:  cpu time    0.0002: real time    0.0002
    CHARGE:  cpu time    0.0159: real time    0.0161
    MIXING:  cpu time    0.0041: real time    0.0041
    --------------------------------------------
      LOOP:  cpu time    0.2927: real time    0.2957

 eigenvalue-minimisations  :    48
 total energy-change (2. order) :-0.2055691E-05  (-0.2373187E-07)
 number of electron       7.9999999 magnetization 
 augmentation part        0.1828304 magnetization 

 Broyden mixing:
  rms(total) = 0.71918E-04    rms(broyden)= 0.71906E-04
  rms(prec ) = 0.88538E-04
  weight for this iteration     100.00

 eigenvalues of (default mixing * dielectric matrix)
  average eigenvalue GAMMA=   1.5787
  1.3091  1.8483

 Free energy of the ion-electron system (eV)
  ---------------------------------------------------
  alpha Z        PSCENC =         0.24652859
  Ewald energy   TEWEN  =       125.91103877
  -Hartree energ DENC   =      -281.96142286
  -exchange      EXHF   =         0.00000000
  -V(xc)+E(xc)   XCENC  =        24.64593314
  PAW double counting   =       454.83970976     -455.62004286
  entropy T*S    EENTRO =        -0.00000000
  eigenvalues    EBANDS =       -89.11926643
  atomic energy  EATOM  =       197.04175453
  Solvation  Ediel_sol  =         0.00000000
  ---------------------------------------------------
  free energy    TOTEN  =       -24.01576736 eV

  energy without entropy =      -24.01576736  energy(sigma->0) =      -24.01576736


--------------------------------------------------------------------------------------------------------




--------------------------------------- Iteration     10(   4)  ---------------------------------------


    POTLOK:  cpu time    0.1159: real time    0.1176
    SETDIJ:  cpu time    0.0019: real time    0.0019
    EDDIAG:  cpu time    0.0352: real time    0.0356
  RMM-DIIS:  cpu time    0.1148: real time    0.1158
    ORTHCH:  cpu time    0.0014: real time    0.0015
       DOS:  cpu time    0.0002: real time    0.0002
    CHARGE:  cpu time    0.0164: real time    0.0165
    MIXING:  cpu time    0.0044: real time    0.0045
    --------------------------------------------
      LOOP:  cpu time    0.2902: real time    0.2935

 eigenvalue-minimisations  :    46
 total energy-change (2. order) :-0.2572251E-05  (-0.6950953E-08)
 number of electron       7.9999999 magnetization 
 augmentation part        0.1828299 magnetization 

 Broyden mixing:
  rms(total) = 0.21580E-04    rms(broyden)= 0.21572E-04
  rms(prec ) = 0.38291E-04
  weight for this iteration     100.00

 eigenvalues of (default mixing * dielectric matrix)
  average eigenvalue GAMMA=   1.6959
  2.5324  1.0155  1.5399

 Free energy of the ion-electron system (eV)
  ---------------------------------------------------
  alpha Z        PSCENC =         0.24652859
  Ewald energy   TEWEN  =       125.91103877
  -Hartree energ DENC   =      -281.96135290
  -exchange      EXHF   =         0.00000000
  -V(xc)+E(xc)   XCENC  =        24.64593006
  PAW double counting   =       454.81329388     -455.59362323
  entropy T*S    EENTRO =        -0.00000000
  eigenvalues    EBANDS =       -89.11933963
  atomic energy  EATOM  =       197.04175453
  Solvation  Ediel_sol  =         0.00000000
  ---------------------------------------------------
  free energy    TOTEN  =       -24.01576993 eV

  energy without entropy =      -24.01576993  energy(sigma->0) =      -24.01576993


--------------------------------------------------------------------------------------------------------




--------------------------------------- Iteration     10(   5)  ---------------------------------------


    POTLOK:  cpu time    0.1189: real time    0.1198
    SETDIJ:  cpu time    0.0020: real time    0.0025
    EDDIAG:  cpu time    0.0334: real time    0.0339
  RMM-DIIS:  cpu time    0.1003: real time    0.1011
    ORTHCH:  cpu time    0.0016: real time    0.0017
       DOS:  cpu time    0.0002: real time    0.0002
    CHARGE:  cpu time    0.0159: real time    0.0160
    MIXING:  cpu time    0.0044: real time    0.0044
    --------------------------------------------
      LOOP:  cpu time    0.2767: real time    0.2796

 eigenvalue-minimisations  :    36
 total energy-change (2. order) :-0.2078174E-05  (-0.1678755E-08)
 number of electron       7.9999999 magnetization 
 augmentation part        0.1828297 magnetization 

 Broyden mixing:
  rms(total) = 0.98229E-05    rms(broyden)= 0.98216E-05
  rms(prec ) = 0.21240E-04
  weight for this iteration     100.00

 eigenvalues of (default mixing * dielectric matrix)
  average eigenvalue GAMMA=   1.6788
  2.6728  1.8115  0.9736  1.2572

 Free energy of the ion-electron system (eV)
  ---------------------------------------------------
  alpha Z        PSCENC =         0.24652859
  Ewald energy   TEWEN  =       125.91103877
  -Hartree energ DENC   =      -281.96106272
  -exchange      EXHF   =         0.00000000
  -V(xc)+E(xc)   XCENC  =        24.64591692
  PAW double counting   =       454.80149210     -455.58181567
  entropy T*S    EENTRO =        -0.00000000
  eigenvalues    EBANDS =       -89.11962453
  atomic energy  EATOM  =       197.04175453
  Solvation  Ediel_sol  =         0.00000000
  ---------------------------------------------------
  free energy    TOTEN  =       -24.01577201 eV

  energy without entropy =      -24.01577201  energy(sigma->0) =      -24.01577201


--------------------------------------------------------------------------------------------------------




--------------------------------------- Iteration     10(   6)  ---------------------------------------


    POTLOK:  cpu time    0.1193: real time    0.1219
    SETDIJ:  cpu time    0.0018: real time    0.0018
    EDDIAG:  cpu time    0.0359: real time    0.0362
  RMM-DIIS:  cpu time    0.1080: real time    0.1090
    ORTHCH:  cpu time    0.0019: real time    0.0020
       DOS:  cpu time    0.0002: real time    0.0002
    CHARGE:  cpu time    0.0161: real time    0.0162
    MIXING:  cpu time    0.0045: real time    0.0046
    --------------------------------------------
      LOOP:  cpu time    0.2877: real time    0.2919

 eigenvalue-minimisations  :    42
 total energy-change (2. order) :-0.1256185E-05  (-0.7201210E-08)
 number of electron       7.9999999 magnetization 
 augmentation part        0.1828298 magnetization 

 Broyden mixing:
  rms(total) = 0.69858E-05    rms(broyden)= 0.69843E-05
  rms(prec ) = 0.12774E-04
  weight for this iteration     100.00

 eigenvalues of (default mixing * dielectric matrix)
  average eigenvalue GAMMA=   1.9785
  4.0770  2.4670  1.4794  0.9743  0.8949

 Free energy of the ion-electron system (eV)
  ---------------------------------------------------
  alpha Z        PSCENC =         0.24652859
  Ewald energy   TEWEN  =       125.91103877
  -Hartree energ DENC   =      -281.96098565
  -exchange      EXHF   =         0.00000000
  -V(xc)+E(xc)   XCENC  =        24.64591012
  PAW double counting   =       454.80366791     -455.58399087
  entropy T*S    EENTRO =        -0.00000000
  eigenvalues    EBANDS =       -89.11969667
  atomic energy  EATOM  =       197.04175453
  Solvation  Ediel_sol  =         0.00000000
  ---------------------------------------------------
  free energy    TOTEN  =       -24.01577326 eV

  energy without entropy =      -24.01577326  energy(sigma->0) =      -24.01577326


--------------------------------------------------------------------------------------------------------




--------------------------------------- Iteration     10(   7)  ---------------------------------------


    POTLOK:  cpu time    0.1200: real time    0.1218
    SETDIJ:  cpu time    0.0020: real time    0.0020
    EDDIAG:  cpu time    0.0346: real time    0.0350
  RMM-DIIS:  cpu time    0.0946: real time    0.0964
    ORTHCH:  cpu time    0.0014: real time    0.0014
       DOS:  cpu time    0.0002: real time    0.0002
    --------------------------------------------
      LOOP:  cpu time    0.2527: real time    0.2567

 eigenvalue-minimisations  :    32
 total energy-change (2. order) :-0.6780692E-06  ( 0.0000000E+00)
 number of electron       7.9999999 magnetization 
 augmentation part        0.1828298 magnetization 

 Free energy of the ion-electron system (eV)
  ---------------------------------------------------
  alpha Z        PSCENC =         0.24652859
  Ewald energy   TEWEN  =       125.91103877
  -Hartree energ DENC   =      -281.96107828
  -exchange      EXHF   =         0.00000000
  -V(xc)+E(xc)   XCENC  =        24.64591228
  PAW double counting   =       454.80655228     -455.58687588
  entropy T*S    EENTRO =        -0.00000000
  eigenvalues    EBANDS =       -89.11960623
  atomic energy  EATOM  =       197.04175453
  Solvation  Ediel_sol  =         0.00000000
  ---------------------------------------------------
  free energy    TOTEN  =       -24.01577394 eV

  energy without entropy =      -24.01577394  energy(sigma->0) =      -24.01577394


--------------------------------------------------------------------------------------------------------




 average (electrostatic) potential at core
  the test charge radii are     0.5201  0.6991
  (the norm of the test charge is              1.0000)
       1 -41.5600       2 -41.4832       3 -41.3142       4 -41.3885       5 -58.0139
 
 
 
 E-fermi :  -8.1940     XC(G=0):  -0.7195     alpha+bet : -0.2144


 k-point     1 :       0.2500    0.2500    0.2500
  band No.  band energies     occupation 
      1     -16.8131      2.00000
      2      -9.3223      2.00000
      3      -9.2523      2.00000
      4      -9.1722      2.00000
      5      -0.3274      0.00000
      6       0.5646      0.00000
      7       0.6704      0.00000
      8       0.7055      0.00000

 k-point     2 :      -0.2500    0.2500    0.2500
  band No.  band energies     occupation 
      1     -16.8130      2.00000
      2      -9.3224      2.00000
      3      -9.2523      2.00000
      4      -9.1721      2.00000
      5      -0.3309      0.00000
      6       0.5731      0.00000
      7       0.6737      0.00000
      8       0.7119      0.00000

 k-point     3 :       0.2500   -0.2500    0.2500
  band No.  band energies     occupation 
      1     -16.8130      2.00000
      2      -9.3224      2.00000
      3      -9.2523      2.00000
      4      -9.1721      2.00000
      5      -0.3244      0.00000
      6       0.5549      0.00000
      7       0.6631      0.00000
      8       0.6987      0.00000

 k-point     4 :      -0.2500   -0.2500    0.2500
  band No.  band energies     occupation 
      1     -16.8130      2.00000
      2      -9.3223      2.00000
      3      -9.2522      2.00000
      4      -9.1721      2.00000
      5      -0.3243      0.00000
      6       0.5579      0.00000
      7       0.6707      0.00000
      8       0.6914      0.00000


--------------------------------------------------------------------------------------------------------


 soft charge-density along one line, spin component           1
         0         1         2         3         4         5         6         7         8         9
 total charge-density along one line
 
 pseudopotential strength for first ion, spin component:           1
 -2.342  -4.035  -0.001  -0.001   0.001
 -4.035  -6.867  -0.003  -0.004   0.002
 -0.001  -0.003  -0.337   0.002  -0.001
 -0.001  -0.004   0.002  -0.335  -0.001
  0.001   0.002  -0.001  -0.001  -0.338
 total augmentation occupancy for first ion, spin component:           1
  3.571  -0.642   0.245   0.335  -0.143
 -0.642   0.130  -0.045  -0.062   0.026
  0.245  -0.045   0.023   0.019  -0.008
  0.335  -0.062   0.019   0.036  -0.011
 -0.143   0.026  -0.008  -0.011   0.014


------------------------ aborting loop because EDIFF is reached ----------------------------------------


    CHARGE:  cpu time    0.0159: real time    0.0161
    FORLOC:  cpu time    0.0103: real time    0.0104
    FORNL :  cpu time    0.0171: real time    0.0171
    STRESS:  cpu time    0.1372: real time    0.1381
    FORCOR:  cpu time    0.1174: real time    0.1195
    FORHAR:  cpu time    0.0357: real time    0.0359
    MIXING:  cpu time    0.0048: real time    0.0049
    OFIELD:  cpu time    0.0000: real time    0.0000

  FORCE on cell =-STRESS in cart. coord.  units (eV):
  Direction    XX          YY          ZZ          XY          YZ          ZX
  --------------------------------------------------------------------------------------
  Alpha Z     0.24653     0.24653     0.24653
  Ewald      41.42708    42.81834    41.66560    -0.54233     1.03073    -0.41876
  Hartree    93.12587    95.55500    93.28031     0.00575     0.25170    -0.08617
  E(xc)     -27.10753   -27.10679   -27.10716     0.00229    -0.00063     0.00061
  Local    -193.30135  -197.54764  -193.66865     0.29242    -0.97952     0.36864
  n-local   -15.69448   -15.64692   -15.69542     0.03306    -0.03151     0.01488
  augment     0.11908     0.12278     0.11869     0.00245    -0.00290     0.00135
  Kinetic   100.54207   100.49474   100.52303    -0.11680     0.03152    -0.03019
  Fock        0.00000     0.00000     0.00000     0.00000     0.00000     0.00000
  -------------------------------------------------------------------------------------
  Total      -0.64273    -1.06398    -0.63707    -0.32316     0.29939    -0.14964
  in kB      -1.04795    -1.73479    -1.03872    -0.52690     0.48815    -0.24398
  external pressure =       -1.27 kB  Pullay stress =        0.00 kB

  kinetic pressure (ideal gas correction) =      0.01 kB
  total pressure  =     -1.27 kB
  Total+kin.    -1.047      -1.722      -1.036      -0.526       0.483      -0.244

 VOLUME and BASIS-vectors are now :
 -----------------------------------------------------------------------------
  energy-cutoff  :      400.00
  volume of cell :      982.65
      direct lattice vectors                 reciprocal lattice vectors
    10.007918674  0.000000000  0.000000000     0.099920876  0.000701314  0.000801787
    -0.068947557  9.823410975  0.000000000     0.000000000  0.101797635 -0.002217989
    -0.081732248  0.217777801  9.995207852     0.000000000  0.000000000  0.100047944

  length of vectors
    10.007918674  9.823652933  9.997914150     0.099926554  0.101821795  0.100047944


 FORCES acting on ions
    electron-ion (+dipol)            ewald-force                    non-local-force                 convergence-correction
 -----------------------------------------------------------------------------------------------
   -.173E+02 0.295E+02 0.404E+02   0.192E+02 -.328E+02 -.449E+02   -.183E+01 0.312E+01 0.428E+01   0.923E-05 0.718E-05 -.318E-06
   0.521E+02 -.603E+01 0.344E+01   -.574E+02 0.667E+01 -.378E+01   0.542E+01 -.629E+00 0.352E+00   -.217E-05 0.102E-04 0.608E-05
   -.228E+02 -.462E+02 0.150E+01   0.248E+02 0.501E+02 -.163E+01   -.228E+01 -.461E+01 0.143E+00   0.686E-05 0.636E-05 0.689E-05
   -.118E+02 0.232E+02 -.450E+02   0.129E+02 -.254E+02 0.492E+02   -.119E+01 0.236E+01 -.458E+01   0.830E-05 0.878E-05 0.116E-04
   -.502E+00 -.107E+01 -.788E+00   0.630E+00 0.135E+01 0.104E+01   0.143E+00 0.303E+00 0.286E+00   0.457E-04 0.572E-04 0.269E-04
 -----------------------------------------------------------------------------------------------
   -.260E+00 -.544E+00 -.478E+00   -.533E-14 0.711E-14 0.000E+00   0.260E+00 0.544E+00 0.479E+00   0.679E-04 0.897E-04 0.511E-04
 
 
 POSITION                                       TOTAL-FORCE (eV/Angst)
 -----------------------------------------------------------------------------------
      5.32656      4.07783      3.61542         0.073818     -0.116412     -0.150371
      3.88065      4.81232      4.37608         0.091256      0.003291      0.002942
      5.46670      5.69174      4.41541        -0.339442     -0.664909      0.013047
      5.22164      4.18955      5.41004        -0.097350      0.192393     -0.399052
      4.97057      4.68585      4.44745         0.271495      0.585647      0.533720
 -----------------------------------------------------------------------------------
    total drift:                               -0.000222      0.000009      0.000286


--------------------------------------------------------------------------------------------------------



  FREE ENERGIE OF THE ION-ELECTRON SYSTEM (eV)
  ---------------------------------------------------
  free  energy   TOTEN  =       -24.01577394 eV

  energy  without entropy=      -24.01577394  energy(sigma->0) =      -24.01577394
 
 d Force =-0.3706559E-02[-0.403E-02,-0.339E-02]  d Energy =-0.3704511E-02-0.205E-05
 d Force = 0.3397492E+00[ 0.339E+00, 0.341E+00]  d Ewald  = 0.3397482E+00 0.105E-05


--------------------------------------------------------------------------------------------------------


    POTLOK:  cpu time    0.1198: real time    0.1207


--------------------------------------------------------------------------------------------------------


 stress matrix after NEB project (eV)
     -0.64273     -0.32316     -0.14964
     -0.32316     -1.06398      0.29939
     -0.14964      0.29939     -0.63707
  FORCES: max atom, RMS     0.837585    0.550407
  FORCE total and by dimension    1.230747    0.664909
  Stress total and by dimension    1.543997    1.063980
           RANDOM_SEED =         581414468               30                0
   IONSTEP:  cpu time    0.0001: real time    0.0001

  ENERGY OF THE ELECTRON-ION-THERMOSTAT SYSTEM (eV)
  ---------------------------------------------------
% ion-electron   TOTEN  =       -24.015774  see above
  kinetic energy EKIN   =         0.003399
  kin. lattice  EKIN_LAT=         0.000000  (temperature    6.57 K)
  nose potential ES     =         0.000000
  nose kinetic   EPS    =         0.000000
  ---------------------------------------------------
  total energy   ETOTAL =       -24.012375 eV

  maximum distance moved by ions :      0.23E-03


 mean value of Nose-termostat <S>:     1.000 mean value of <T> :    17.507
 mean temperature <T/S>/<1/S>  :    17.507

    WAVPRE:  cpu time    0.0445: real time    0.0452
    FEWALD:  cpu time    0.0010: real time    0.0010
    ORTHCH:  cpu time    0.0079: real time    0.0079
 Prediction of Wavefunctions ALPHA= 2.082 BETA=-1.109
    POTLOK:  cpu time    0.1169: real time    0.1179
    EDDIAG:  cpu time    0.0351: real time    0.0355
     LOOP+:  cpu time    2.6817: real time    2.7111
    4ORBIT:  cpu time    0.0000: real time    0.0014

 total amount of memory used by VASP MPI-rank0    54587. kBytes
=======================================================================

   base      :      30000. kBytes
   nonl-proj :       2647. kBytes
   fftplans  :       7845. kBytes
   grid      :      12367. kBytes
   one-center:          6. kBytes
   wavefun   :       1722. kBytes
 
  
  
 General timing and accounting informations for this job:
 ========================================================
  
                  Total CPU time used (sec):       26.240
                            User time (sec):       24.535
                          System time (sec):        1.704
                         Elapsed time (sec):       27.304
  
                   Maximum memory used (kb):      179804.
                   Average memory used (kb):           0.
  
                          Minor page faults:       259216
                          Major page faults:          210
                 Voluntary context switches:          660
