5.381540000000000212e+00 4.068609999999999616e+00 3.605729999999999880e+00 3.945399999999999796e+00 4.803209999999999980e+00 4.384689999999999976e+00 5.520920000000000272e+00 5.654499999999999638e+00 4.427089999999999748e+00 5.281850000000000378e+00 4.164150000000000240e+00 5.391829999999999679e+00 5.032510000000000261e+00 4.672550000000000203e+00 4.452320000000000277e+00
5.381540000000000212e+00 4.068609999999999616e+00 3.605729999999999880e+00 3.945399999999999796e+00 4.803209999999999980e+00 4.384689999999999976e+00 5.520920000000000272e+00 5.654499999999999638e+00 4.427089999999999748e+00 5.281850000000000378e+00 4.164150000000000240e+00 5.391829999999999679e+00 5.032510000000000261e+00 4.672550000000000203e+00 4.452320000000000277e+00
5.381549999999999834e+00 4.068599999999999994e+00 3.605719999999999814e+00 3.945409999999999862e+00 4.803209999999999980e+00 4.384689999999999976e+00 5.520920000000000272e+00 5.654499999999999638e+00 4.427089999999999748e+00 5.281859999999999999e+00 4.164150000000000240e+00 5.391829999999999679e+00 5.032510000000000261e+00 4.672550000000000203e+00 4.452320000000000277e+00
5.381549999999999834e+00 4.068599999999999994e+00 3.605719999999999814e+00 3.945409999999999862e+00 4.803200000000000358e+00 4.384689999999999976e+00 5.520920000000000272e+00 5.654490000000000016e+00 4.427089999999999748e+00 5.281859999999999999e+00 4.164139999999999731e+00 5.391840000000000188e+00 5.032510000000000261e+00 4.672550000000000203e+00 4.452320000000000277e+00
5.381560000000000343e+00 4.068590000000000373e+00 3.605710000000000193e+00 3.945419999999999927e+00 4.803200000000000358e+00 4.384689999999999976e+00 5.520920000000000272e+00 5.654490000000000016e+00 4.427089999999999748e+00 5.281869999999999621e+00 4.164139999999999731e+00 5.391840000000000188e+00 5.032510000000000261e+00 4.672550000000000203e+00 4.452320000000000277e+00
5.381560000000000343e+00 4.068590000000000373e+00 3.605710000000000193e+00 3.945429999999999993e+00 4.803200000000000358e+00 4.384689999999999976e+00 5.520929999999999893e+00 5.654480000000000395e+00 4.427089999999999748e+00 5.281869999999999621e+00 4.164130000000000109e+00 5.391840000000000188e+00 5.032499999999999751e+00 4.672559999999999825e+00 4.452320000000000277e+00
5.381569999999999965e+00 4.068579999999999863e+00 3.605700000000000127e+00 3.945429999999999993e+00 4.803189999999999849e+00 4.384680000000000355e+00 5.520929999999999893e+00 5.654469999999999885e+00 4.427089999999999748e+00 5.281880000000000130e+00 4.164119999999999600e+00 5.391840000000000188e+00 5.032499999999999751e+00 4.672559999999999825e+00 4.452320000000000277e+00
5.381579999999999586e+00 4.068570000000000242e+00 3.605700000000000127e+00 3.945440000000000058e+00 4.803180000000000227e+00 4.384680000000000355e+00 5.520929999999999893e+00 5.654469999999999885e+00 4.427080000000000126e+00 5.281889999999999752e+00 4.164109999999999978e+00 5.391840000000000188e+00 5.032499999999999751e+00 4.672559999999999825e+00 4.452320000000000277e+00
5.381590000000000096e+00 4.068570000000000242e+00 3.605700000000000127e+00 3.945450000000000124e+00 4.803180000000000227e+00 4.384680000000000355e+00 5.520940000000000403e+00 5.654460000000000264e+00 4.427080000000000126e+00 5.281900000000000261e+00 4.164109999999999978e+00 5.391840000000000188e+00 5.032499999999999751e+00 4.672559999999999825e+00 4.452320000000000277e+00
5.381599999999999717e+00 4.068570000000000242e+00 3.605700000000000127e+00 3.945450000000000124e+00 4.803169999999999717e+00 4.384680000000000355e+00 5.520940000000000403e+00 5.654449999999999754e+00 4.427080000000000126e+00 5.281909999999999883e+00 4.164100000000000357e+00 5.391840000000000188e+00 5.032490000000000130e+00 4.672559999999999825e+00 4.452320000000000277e+00
5.538579999999999615e+00 4.156390000000000029e+00 3.646959999999999980e+00 4.077840000000000131e+00 4.909779999999999589e+00 4.432750000000000412e+00 5.692709999999999937e+00 5.766259999999999941e+00 4.484420000000000073e+00 5.445899999999999963e+00 4.274549999999999628e+00 5.458899999999999864e+00 5.185789999999999900e+00 4.775229999999999642e+00 4.498090000000000366e+00
5.538280000000000314e+00 4.156990000000000407e+00 3.647730000000000139e+00 4.079430000000000334e+00 4.909650000000000070e+00 4.432850000000000179e+00 5.692029999999999923e+00 5.765249999999999986e+00 4.484200000000000408e+00 5.445470000000000255e+00 4.274930000000000341e+00 5.457779999999999632e+00 5.185780000000000278e+00 4.775240000000000151e+00 4.498129999999999740e+00
5.537700000000000067e+00 4.158140000000000391e+00 3.649210000000000065e+00 4.082489999999999952e+00 4.909390000000000143e+00 4.433049999999999713e+00 5.690719999999999779e+00 5.763309999999999711e+00 4.483749999999999680e+00 5.444630000000000081e+00 4.275640000000000107e+00 5.455610000000000070e+00 5.185749999999999638e+00 4.775269999999999904e+00 4.498210000000000264e+00
5.536880000000000024e+00 4.159769999999999968e+00 3.651299999999999990e+00 4.086800000000000210e+00 4.909040000000000070e+00 4.433320000000000149e+00 5.688860000000000028e+00 5.760580000000000034e+00 4.483080000000000176e+00 5.443439999999999834e+00 4.276609999999999800e+00 5.452549999999999564e+00 5.185710000000000264e+00 4.775310000000000166e+00 4.498319999999999652e+00
5.535890000000000200e+00 4.161769999999999747e+00 3.653840000000000199e+00 4.092050000000000409e+00 4.908619999999999983e+00 4.433650000000000091e+00 5.686580000000000190e+00 5.757279999999999731e+00 4.482190000000000119e+00 5.441959999999999908e+00 4.277739999999999654e+00 5.448809999999999931e+00 5.185670000000000002e+00 4.775360000000000049e+00 4.498470000000000191e+00
5.534799999999999720e+00 4.163990000000000080e+00 3.656649999999999956e+00 4.097850000000000215e+00 4.908179999999999765e+00 4.434000000000000163e+00 5.684000000000000163e+00 5.753669999999999618e+00 4.481099999999999639e+00 5.440269999999999939e+00 4.278889999999999638e+00 5.444659999999999833e+00 5.185640000000000249e+00 4.775420000000000442e+00 4.498639999999999972e+00
5.533699999999999619e+00 4.166269999999999918e+00 3.659510000000000041e+00 4.103740000000000165e+00 4.907770000000000188e+00 4.434359999999999857e+00 5.681300000000000239e+00 5.750049999999999883e+00 4.479820000000000135e+00 5.438469999999999693e+00 4.279939999999999856e+00 5.440409999999999968e+00 5.185609999999999609e+00 4.775479999999999947e+00 4.498829999999999885e+00
5.532680000000000042e+00 4.168459999999999610e+00 3.662189999999999834e+00 4.109270000000000422e+00 4.907429999999999737e+00 4.434680000000000177e+00 5.678650000000000198e+00 5.746719999999999828e+00 4.478369999999999962e+00 5.436650000000000205e+00 4.280719999999999636e+00 5.436370000000000147e+00 5.185609999999999609e+00 4.775529999999999831e+00 4.499039999999999928e+00
5.531819999999999737e+00 4.170390000000000263e+00 3.664480000000000182e+00 4.113970000000000127e+00 4.907219999999999693e+00 4.434929999999999595e+00 5.676230000000000331e+00 5.743979999999999642e+00 4.476759999999999629e+00 5.434910000000000352e+00 4.281100000000000350e+00 5.432859999999999800e+00 5.185640000000000249e+00 4.775590000000000224e+00 4.499259999999999593e+00
5.531189999999999607e+00 4.171920000000000073e+00 3.666189999999999838e+00 4.117460000000000342e+00 4.907180000000000319e+00 4.435089999999999755e+00 5.674159999999999648e+00 5.742079999999999629e+00 4.475019999999999776e+00 5.433349999999999902e+00 4.280960000000000321e+00 5.430150000000000254e+00 5.185699999999999754e+00 4.775629999999999598e+00 4.499469999999999636e+00
5.335359999999999658e+00 3.904959999999999987e+00 3.662230000000000096e+00 3.930569999999999897e+00 4.607759999999999856e+00 4.452779999999999738e+00 5.500149999999999650e+00 5.438189999999999635e+00 4.491799999999999571e+00 5.207209999999999894e+00 3.966439999999999966e+00 5.480719999999999814e+00 4.990319999999999645e+00 4.485970000000000013e+00 4.527040000000000397e+00
5.335429999999999673e+00 3.904469999999999885e+00 3.662549999999999972e+00 3.928300000000000125e+00 4.608399999999999608e+00 4.452530000000000321e+00 5.500490000000000101e+00 5.439510000000000289e+00 4.492130000000000400e+00 5.207460000000000200e+00 3.966680000000000206e+00 5.479849999999999888e+00 4.990450000000000053e+00 4.485829999999999984e+00 4.527079999999999771e+00
5.335569999999999702e+00 3.903519999999999879e+00 3.663180000000000103e+00 3.923970000000000180e+00 4.609659999999999869e+00 4.452060000000000350e+00 5.501120000000000232e+00 5.442040000000000433e+00 4.492779999999999774e+00 5.207959999999999923e+00 3.967140000000000111e+00 5.478150000000000297e+00 4.990709999999999980e+00 4.485560000000000436e+00 4.527149999999999785e+00
5.335759999999999614e+00 3.902109999999999967e+00 3.664089999999999847e+00 3.918010000000000215e+00 4.611469999999999736e+00 4.451399999999999579e+00 5.501940000000000275e+00 5.445579999999999643e+00 4.493750000000000355e+00 5.208730000000000082e+00 3.967769999999999797e+00 5.475760000000000183e+00 4.991050000000000431e+00 4.485170000000000101e+00 4.527250000000000441e+00
5.336020000000000429e+00 3.900269999999999904e+00 3.665259999999999962e+00 3.910950000000000149e+00 4.613739999999999952e+00 4.450590000000000046e+00 5.502819999999999823e+00 5.449880000000000280e+00 4.495020000000000238e+00 5.209769999999999790e+00 3.968490000000000073e+00 5.472839999999999705e+00 4.991460000000000008e+00 4.484720000000000262e+00 4.527359999999999829e+00
5.336319999999999730e+00 3.898050000000000015e+00 3.666650000000000187e+00 3.903430000000000177e+00 4.616389999999999993e+00 4.449679999999999858e+00 5.503610000000000113e+00 5.454589999999999606e+00 4.496570000000000178e+00 5.211079999999999934e+00 3.969209999999999905e+00 5.469610000000000305e+00 4.991889999999999716e+00 4.484230000000000160e+00 4.527449999999999974e+00
5.336660000000000181e+00 3.895490000000000119e+00 3.668239999999999945e+00 3.896100000000000119e+00 4.619299999999999962e+00 4.448730000000000295e+00 5.504159999999999719e+00 5.459399999999999586e+00 4.498380000000000045e+00 5.212670000000000137e+00 3.969819999999999904e+00 5.466289999999999871e+00 4.992289999999999672e+00 4.483749999999999680e+00 4.527529999999999610e+00
5.337030000000000385e+00 3.892650000000000166e+00 3.669989999999999863e+00 3.889549999999999841e+00 4.622359999999999580e+00 4.447790000000000354e+00 5.504319999999999879e+00 5.463949999999999640e+00 4.500420000000000087e+00 5.214559999999999640e+00 3.970239999999999991e+00 5.463129999999999598e+00 4.992630000000000123e+00 4.483319999999999972e+00 4.527549999999999741e+00
5.337419999999999831e+00 3.889580000000000037e+00 3.671850000000000058e+00 3.884290000000000020e+00 4.625460000000000349e+00 4.446909999999999918e+00 5.503989999999999938e+00 5.467950000000000088e+00 4.502640000000000420e+00 5.216719999999999580e+00 3.970380000000000020e+00 5.460340000000000416e+00 4.992890000000000050e+00 4.482969999999999899e+00 4.527519999999999989e+00
5.337819999999999787e+00 3.886359999999999815e+00 3.673799999999999955e+00 3.880729999999999791e+00 4.628510000000000346e+00 4.446130000000000138e+00 5.503059999999999619e+00 5.471160000000000245e+00 4.505029999999999646e+00 5.219140000000000335e+00 3.970169999999999977e+00 5.458090000000000330e+00 4.993030000000000079e+00 4.482739999999999725e+00 4.527409999999999712e+00
5.325709999999999944e+00 4.001000000000000334e+00 3.632680000000000131e+00 3.835440000000000182e+00 4.714360000000000106e+00 4.415210000000000079e+00 5.427679999999999616e+00 5.562359999999999971e+00 4.454760000000000275e+00 5.177270000000000039e+00 4.056429999999999758e+00 5.434129999999999683e+00 4.940269999999999939e+00 4.583619999999999806e+00 4.484650000000000247e+00
5.325199999999999712e+00 4.000899999999999679e+00 3.632979999999999876e+00 3.836790000000000145e+00 4.714129999999999932e+00 4.415040000000000298e+00 5.427690000000000126e+00 5.562669999999999781e+00 4.455140000000000100e+00 5.177190000000000403e+00 4.057059999999999889e+00 5.433200000000000252e+00 4.940199999999999925e+00 4.583569999999999922e+00 4.484680000000000000e+00
5.324209999999999887e+00 4.000720000000000276e+00 3.633529999999999927e+00 3.839389999999999858e+00 4.713689999999999714e+00 4.414699999999999847e+00 5.427710000000000257e+00 5.563270000000000159e+00 4.455890000000000128e+00 5.177059999999999995e+00 4.058279999999999887e+00 5.431390000000000384e+00 4.940080000000000027e+00 4.583470000000000155e+00 4.484750000000000014e+00
5.322770000000000223e+00 4.000420000000000087e+00 3.634320000000000217e+00 3.843039999999999790e+00 4.713049999999999962e+00 4.414179999999999993e+00 5.427710000000000257e+00 5.564110000000000333e+00 4.456999999999999851e+00 5.176890000000000214e+00 4.060010000000000119e+00 5.428860000000000241e+00 4.939910000000000245e+00 4.583330000000000126e+00 4.484849999999999781e+00
5.320920000000000094e+00 4.000000000000000000e+00 3.635279999999999845e+00 3.847459999999999880e+00 4.712270000000000181e+00 4.413479999999999848e+00 5.427679999999999616e+00 5.565120000000000289e+00 4.458440000000000403e+00 5.176739999999999675e+00 4.062129999999999797e+00 5.425799999999999734e+00 4.939709999999999823e+00 4.583169999999999966e+00 4.484960000000000058e+00
5.318719999999999892e+00 3.999439999999999884e+00 3.636350000000000193e+00 3.852329999999999810e+00 4.711389999999999745e+00 4.412600000000000300e+00 5.427579999999999849e+00 5.566220000000000390e+00 4.460189999999999877e+00 5.176650000000000418e+00 4.064499999999999780e+00 5.422450000000000436e+00 4.939499999999999780e+00 4.583000000000000185e+00 4.485079999999999956e+00
5.316250000000000142e+00 3.998699999999999921e+00 3.637439999999999785e+00 3.857240000000000002e+00 4.710449999999999804e+00 4.411529999999999951e+00 5.427389999999999937e+00 5.567319999999999602e+00 4.462220000000000297e+00 5.176689999999999792e+00 4.066970000000000418e+00 5.419089999999999741e+00 4.939309999999999867e+00 4.582849999999999646e+00 4.485190000000000232e+00
5.313579999999999970e+00 3.997780000000000111e+00 3.638500000000000068e+00 3.861800000000000122e+00 4.709520000000000373e+00 4.410280000000000200e+00 5.427080000000000126e+00 5.568349999999999689e+00 4.464480000000000004e+00 5.176899999999999835e+00 4.069359999999999644e+00 5.415980000000000238e+00 4.939160000000000217e+00 4.582720000000000127e+00 4.485280000000000378e+00
5.310789999999999900e+00 3.996659999999999879e+00 3.639429999999999943e+00 3.865639999999999965e+00 4.708649999999999558e+00 4.408830000000000027e+00 5.426639999999999908e+00 5.569230000000000125e+00 4.466920000000000002e+00 5.177330000000000432e+00 4.071530000000000094e+00 5.413409999999999833e+00 4.939070000000000071e+00 4.582629999999999981e+00 4.485330000000000261e+00
5.307949999999999946e+00 3.995319999999999983e+00 3.640179999999999971e+00 3.868419999999999970e+00 4.707889999999999908e+00 4.407219999999999693e+00 5.426050000000000040e+00 5.569899999999999629e+00 4.469500000000000028e+00 5.178020000000000067e+00 4.073330000000000339e+00 5.411590000000000344e+00 4.939070000000000071e+00 4.582600000000000229e+00 4.485339999999999883e+00
5.154749999999999943e+00 4.013270000000000337e+00 3.609760000000000080e+00 3.693940000000000001e+00 4.740630000000000344e+00 4.386079999999999757e+00 5.236500000000000377e+00 5.579790000000000028e+00 4.429529999999999745e+00 5.009369999999999656e+00 4.109939999999999927e+00 5.393729999999999691e+00 4.782300000000000217e+00 4.614390000000000214e+00 4.457379999999999676e+00
5.154399999999999871e+00 4.013469999999999871e+00 3.610170000000000101e+00 3.693960000000000132e+00 4.740440000000000431e+00 4.385839999999999961e+00 5.237729999999999997e+00 5.581990000000000229e+00 4.429619999999999891e+00 5.009730000000000238e+00 4.109650000000000247e+00 5.394339999999999691e+00 4.782189999999999941e+00 4.614230000000000054e+00 4.457309999999999661e+00
5.153730000000000366e+00 4.013860000000000205e+00 3.610949999999999882e+00 3.693970000000000198e+00 4.740070000000000228e+00 4.385390000000000121e+00 5.240079999999999849e+00 5.586179999999999701e+00 4.429809999999999803e+00 5.010419999999999874e+00 4.109099999999999753e+00 5.395509999999999806e+00 4.781990000000000407e+00 4.613929999999999865e+00 4.457169999999999632e+00
5.152790000000000425e+00 4.014380000000000059e+00 3.612039999999999917e+00 3.693979999999999819e+00 4.739539999999999864e+00 4.384730000000000238e+00 5.243350000000000399e+00 5.591929999999999623e+00 4.430100000000000371e+00 5.011420000000000208e+00 4.108340000000000103e+00 5.397149999999999892e+00 4.781710000000000349e+00 4.613509999999999778e+00 4.456970000000000098e+00
5.151620000000000310e+00 4.014990000000000059e+00 3.613339999999999996e+00 3.693970000000000198e+00 4.738850000000000229e+00 4.383869999999999933e+00 5.247270000000000323e+00 5.598720000000000141e+00 4.430509999999999948e+00 5.012690000000000090e+00 4.107450000000000045e+00 5.399119999999999919e+00 4.781380000000000408e+00 4.613030000000000186e+00 4.456730000000000302e+00
5.150310000000000166e+00 4.015600000000000058e+00 3.614730000000000221e+00 3.693919999999999870e+00 4.738039999999999807e+00 4.382830000000000226e+00 5.251549999999999940e+00 5.605909999999999727e+00 4.431040000000000312e+00 5.014170000000000016e+00 4.106530000000000236e+00 5.401250000000000107e+00 4.781010000000000204e+00 4.612519999999999953e+00 4.456479999999999997e+00
5.148930000000000007e+00 4.016130000000000422e+00 3.616089999999999804e+00 3.693810000000000038e+00 4.737129999999999619e+00 4.381630000000000358e+00 5.255860000000000198e+00 5.612879999999999647e+00 4.431700000000000195e+00 5.015810000000000102e+00 4.105660000000000309e+00 5.403380000000000294e+00 4.780640000000000001e+00 4.612049999999999983e+00 4.456240000000000201e+00
5.147549999999999848e+00 4.016519999999999868e+00 3.617280000000000051e+00 3.693659999999999943e+00 4.736150000000000304e+00 4.380309999999999704e+00 5.259920000000000151e+00 5.619060000000000166e+00 4.432479999999999976e+00 5.017549999999999955e+00 4.104960000000000164e+00 5.405330000000000190e+00 4.780289999999999928e+00 4.611640000000000406e+00 4.456019999999999648e+00
5.146259999999999835e+00 4.016700000000000159e+00 3.618199999999999861e+00 3.693430000000000213e+00 4.735120000000000218e+00 4.378890000000000171e+00 5.263469999999999871e+00 5.623940000000000161e+00 4.433379999999999654e+00 5.019330000000000069e+00 4.104490000000000194e+00 5.406939999999999635e+00 4.779969999999999608e+00 4.611340000000000217e+00 4.455849999999999866e+00
5.145120000000000360e+00 4.016610000000000014e+00 3.618770000000000042e+00 3.693150000000000155e+00 4.734070000000000000e+00 4.377399999999999736e+00 5.266309999999999825e+00 5.627159999999999940e+00 4.434389999999999610e+00 5.021099999999999675e+00 4.104330000000000034e+00 5.408079999999999998e+00 4.779700000000000060e+00 4.611180000000000057e+00 4.455750000000000099e+00
5.537209999999999965e+00 3.873460000000000125e+00 3.693020000000000191e+00 4.119469999999999743e+00 4.563869999999999649e+00 4.486659999999999648e+00 5.727199999999999847e+00 5.405700000000000394e+00 4.537740000000000329e+00 5.440820000000000434e+00 3.909759999999999902e+00 5.519820000000000171e+00 5.202219999999999622e+00 4.432739999999999903e+00 4.556409999999999627e+00
5.537689999999999557e+00 3.872320000000000206e+00 3.692390000000000061e+00 4.119209999999999816e+00 4.564269999999999605e+00 4.486710000000000420e+00 5.726530000000000342e+00 5.405359999999999943e+00 4.537989999999999746e+00 5.440640000000000143e+00 3.910340000000000149e+00 5.518040000000000056e+00 5.202270000000000394e+00 4.432780000000000165e+00 4.556580000000000297e+00
5.538619999999999877e+00 3.870099999999999874e+00 3.691219999999999946e+00 4.118710000000000093e+00 4.565059999999999896e+00 4.486819999999999808e+00 5.725209999999999688e+00 5.404720000000000191e+00 4.538459999999999717e+00 5.440279999999999561e+00 3.911449999999999871e+00 5.514579999999999593e+00 5.202370000000000161e+00 4.432859999999999800e+00 4.556919999999999860e+00
5.539909999999999890e+00 3.866950000000000109e+00 3.689659999999999940e+00 4.118019999999999570e+00 4.566220000000000390e+00 4.486979999999999968e+00 5.723320000000000185e+00 5.403859999999999886e+00 4.539150000000000240e+00 5.439799999999999969e+00 3.912980000000000125e+00 5.509689999999999976e+00 5.202519999999999811e+00 4.432970000000000077e+00 4.557389999999999830e+00
5.541479999999999961e+00 3.863039999999999807e+00 3.687940000000000218e+00 4.117219999999999658e+00 4.567709999999999937e+00 4.487180000000000391e+00 5.720930000000000071e+00 5.402890000000000192e+00 4.540029999999999788e+00 5.439269999999999605e+00 3.914740000000000109e+00 5.503689999999999749e+00 5.202700000000000102e+00 4.433110000000000106e+00 4.557940000000000325e+00
5.543180000000000440e+00 3.858600000000000030e+00 3.686290000000000067e+00 4.116380000000000372e+00 4.569499999999999673e+00 4.487420000000000186e+00 5.718149999999999622e+00 5.401930000000000121e+00 4.541089999999999627e+00 5.438769999999999882e+00 3.916549999999999976e+00 5.497010000000000396e+00 5.202899999999999636e+00 4.433259999999999756e+00 4.558530000000000193e+00
5.544909999999999783e+00 3.853870000000000129e+00 3.684969999999999857e+00 4.115599999999999703e+00 4.571530000000000094e+00 4.487680000000000113e+00 5.715099999999999625e+00 5.401119999999999699e+00 4.542279999999999873e+00 5.438410000000000188e+00 3.918149999999999800e+00 5.490129999999999733e+00 5.203109999999999680e+00 4.433419999999999916e+00 4.559090000000000309e+00
5.546540000000000248e+00 3.849070000000000213e+00 3.684200000000000141e+00 4.114969999999999573e+00 4.573750000000000426e+00 4.487969999999999793e+00 5.711909999999999599e+00 5.400610000000000355e+00 4.543569999999999887e+00 5.438270000000000159e+00 3.919319999999999915e+00 5.483559999999999768e+00 5.203299999999999592e+00 4.433580000000000076e+00 4.559569999999999901e+00
5.547959999999999781e+00 3.844419999999999948e+00 3.684180000000000010e+00 4.114559999999999995e+00 4.576100000000000279e+00 4.488260000000000360e+00 5.708680000000000199e+00 5.400509999999999700e+00 4.544929999999999914e+00 5.438449999999999562e+00 3.919799999999999951e+00 5.477769999999999584e+00 5.203470000000000262e+00 4.433740000000000236e+00 4.559910000000000352e+00
5.549080000000000013e+00 3.840120000000000200e+00 3.685049999999999937e+00 4.114429999999999588e+00 4.578520000000000145e+00 4.488570000000000171e+00 5.705540000000000056e+00 5.400920000000000165e+00 4.546319999999999695e+00 5.439020000000000188e+00 3.919430000000000192e+00 5.473189999999999777e+00 5.203599999999999781e+00 4.433889999999999887e+00 4.560080000000000133e+00
5.530859999999999665e+00 4.209380000000000344e+00 3.563009999999999788e+00 4.068660000000000387e+00 4.967439999999999856e+00 4.329240000000000421e+00 5.694359999999999644e+00 5.846300000000000274e+00 4.372020000000000017e+00 5.410160000000000302e+00 4.335919999999999774e+00 5.330709999999999837e+00 5.177599999999999980e+00 4.839760000000000062e+00 4.399020000000000152e+00
5.530640000000000001e+00 4.209920000000000329e+00 3.563309999999999977e+00 4.070269999999999833e+00 4.967480000000000118e+00 4.329200000000000159e+00 5.693109999999999893e+00 5.844100000000000072e+00 4.371999999999999886e+00 5.410440000000000360e+00 4.335580000000000211e+00 5.331680000000000419e+00 5.177559999999999718e+00 4.839920000000000222e+00 4.398920000000000385e+00
5.530219999999999914e+00 4.210980000000000167e+00 3.563899999999999846e+00 4.073369999999999713e+00 4.967559999999999754e+00 4.329110000000000014e+00 5.690690000000000026e+00 5.839850000000000207e+00 4.371959999999999624e+00 5.410989999999999966e+00 4.334950000000000081e+00 5.333529999999999660e+00 5.177489999999999704e+00 4.840230000000000032e+00 4.398729999999999585e+00
5.529639999999999667e+00 4.212500000000000355e+00 3.564700000000000202e+00 4.077740000000000364e+00 4.967699999999999783e+00 4.328960000000000363e+00 5.687269999999999825e+00 5.833849999999999980e+00 4.371889999999999610e+00 5.411760000000000126e+00 4.334100000000000286e+00 5.336100000000000065e+00 5.177399999999999558e+00 4.840659999999999741e+00 4.398460000000000036e+00
5.528920000000000279e+00 4.214389999999999858e+00 3.565650000000000208e+00 4.083059999999999690e+00 4.967909999999999826e+00 4.328750000000000320e+00 5.683069999999999844e+00 5.826539999999999608e+00 4.371789999999999843e+00 5.412700000000000067e+00 4.333149999999999835e+00 5.339159999999999684e+00 5.177290000000000170e+00 4.841179999999999595e+00 4.398150000000000226e+00
5.528120000000000367e+00 4.216540000000000177e+00 3.566650000000000098e+00 4.088930000000000398e+00 4.968230000000000146e+00 4.328470000000000262e+00 5.678399999999999892e+00 5.818469999999999587e+00 4.371649999999999814e+00 5.413739999999999775e+00 4.332209999999999894e+00 5.342450000000000365e+00 5.177170000000000272e+00 4.841719999999999580e+00 4.397829999999999906e+00
5.527300000000000324e+00 4.218840000000000146e+00 3.567579999999999973e+00 4.094890000000000363e+00 4.968670000000000364e+00 4.328100000000000058e+00 5.673600000000000421e+00 5.810299999999999798e+00 4.371459999999999901e+00 5.414799999999999613e+00 4.331409999999999982e+00 5.345690000000000275e+00 5.177050000000000374e+00 4.842240000000000322e+00 4.397529999999999717e+00
5.526519999999999655e+00 4.221169999999999867e+00 3.568350000000000133e+00 4.100469999999999615e+00 4.969280000000000364e+00 4.327630000000000088e+00 5.669039999999999857e+00 5.802710000000000257e+00 4.371220000000000105e+00 5.415809999999999569e+00 4.330869999999999997e+00 5.348629999999999995e+00 5.176949999999999719e+00 4.842670000000000030e+00 4.397280000000000300e+00
5.525830000000000020e+00 4.223399999999999821e+00 3.568839999999999790e+00 4.105220000000000091e+00 4.970069999999999766e+00 4.327049999999999841e+00 5.665090000000000181e+00 5.796389999999999709e+00 4.370910000000000295e+00 5.416730000000000267e+00 4.330680000000000085e+00 5.351029999999999731e+00 5.176859999999999573e+00 4.842959999999999710e+00 4.397109999999999630e+00
5.525280000000000413e+00 4.225430000000000241e+00 3.568970000000000198e+00 4.108730000000000437e+00 4.971070000000000100e+00 4.326360000000000205e+00 5.662079999999999558e+00 5.791929999999999801e+00 4.370540000000000092e+00 5.417480000000000295e+00 4.330910000000000259e+00 5.352739999999999831e+00 5.176800000000000068e+00 4.843060000000000365e+00 4.397050000000000125e+00
5.314359999999999751e+00 3.973910000000000053e+00 3.534339999999999815e+00 3.832679999999999865e+00 4.684149999999999814e+00 4.295010000000000439e+00 5.407210000000000072e+00 5.537270000000000358e+00 4.340099999999999625e+00 5.189149999999999707e+00 4.028340000000000032e+00 5.279959999999999987e+00 4.936119999999999841e+00 4.556289999999999729e+00 4.367689999999999628e+00
5.314320000000000377e+00 3.973370000000000068e+00 3.533329999999999860e+00 3.833899999999999864e+00 4.683810000000000251e+00 4.294999999999999929e+00 5.407530000000000392e+00 5.537880000000000358e+00 4.340390000000000192e+00 5.189300000000000246e+00 4.028159999999999741e+00 5.281049999999999578e+00 4.935979999999999812e+00 4.556329999999999991e+00 4.367659999999999876e+00
5.314230000000000231e+00 3.972339999999999982e+00 3.531390000000000029e+00 3.836240000000000094e+00 4.683150000000000368e+00 4.294950000000000045e+00 5.408150000000000013e+00 5.539030000000000342e+00 4.340970000000000439e+00 5.189569999999999794e+00 4.027849999999999930e+00 5.283150000000000013e+00 4.935719999999999885e+00 4.556400000000000006e+00 4.367600000000000371e+00
5.314049999999999940e+00 3.970920000000000005e+00 3.528680000000000039e+00 3.839519999999999822e+00 4.682190000000000296e+00 4.294880000000000031e+00 5.409019999999999939e+00 5.540639999999999787e+00 4.341829999999999856e+00 5.189939999999999998e+00 4.027470000000000105e+00 5.286100000000000243e+00 4.935360000000000191e+00 4.556490000000000151e+00 4.367519999999999847e+00
5.313710000000000377e+00 3.969230000000000036e+00 3.525370000000000115e+00 3.843459999999999877e+00 4.680979999999999919e+00 4.294760000000000133e+00 5.410090000000000288e+00 5.542570000000000441e+00 4.342950000000000088e+00 5.190349999999999575e+00 4.027110000000000412e+00 5.289679999999999715e+00 4.934929999999999595e+00 4.556600000000000428e+00 4.367409999999999570e+00
5.313170000000000393e+00 3.967420000000000169e+00 3.521720000000000184e+00 3.847729999999999873e+00 4.679570000000000007e+00 4.294579999999999842e+00 5.411270000000000024e+00 5.544640000000000235e+00 4.344310000000000116e+00 5.190750000000000419e+00 4.026900000000000368e+00 5.293650000000000411e+00 4.934490000000000265e+00 4.556720000000000326e+00 4.367289999999999672e+00
5.312369999999999592e+00 3.965650000000000119e+00 3.517959999999999976e+00 3.851980000000000182e+00 4.678020000000000067e+00 4.294340000000000046e+00 5.412490000000000023e+00 5.546700000000000408e+00 4.345909999999999940e+00 5.191099999999999604e+00 4.026950000000000252e+00 5.297710000000000363e+00 4.934079999999999799e+00 4.556820000000000093e+00 4.367149999999999643e+00
5.311239999999999739e+00 3.964049999999999851e+00 3.514349999999999863e+00 3.855820000000000025e+00 4.676389999999999603e+00 4.294019999999999726e+00 5.413649999999999629e+00 5.548560000000000159e+00 4.347699999999999676e+00 5.191329999999999778e+00 4.027350000000000207e+00 5.301619999999999777e+00 4.933729999999999727e+00 4.556899999999999729e+00 4.366999999999999993e+00
5.309750000000000192e+00 3.962769999999999904e+00 3.511089999999999822e+00 3.858909999999999840e+00 4.674739999999999895e+00 4.293599999999999639e+00 5.414699999999999847e+00 5.550080000000000346e+00 4.349649999999999572e+00 5.191390000000000171e+00 4.028190000000000381e+00 5.305130000000000123e+00 4.933510000000000062e+00 4.556949999999999612e+00 4.366850000000000342e+00
5.307890000000000441e+00 3.961910000000000043e+00 3.508379999999999832e+00 3.860970000000000013e+00 4.673129999999999562e+00 4.293099999999999916e+00 5.415549999999999642e+00 5.551129999999999676e+00 4.351740000000000386e+00 5.191250000000000142e+00 4.029530000000000278e+00 5.308040000000000092e+00 4.933430000000000426e+00 4.556949999999999612e+00 4.366710000000000313e+00