-2.402879021000000037e+01
-2.402879034000000047e+01
-2.402879034000000047e+01
-2.402879032999999964e+01
-2.402879041999999998e+01
-2.402879038000000023e+01
-2.402879043000000081e+01
-2.402879043000000081e+01
-2.402879043000000081e+01
-2.402879039000000105e+01
-2.400933093000000085e+01
-2.401202324999999860e+01
-2.401665480000000130e+01
-2.402192890999999975e+01
-2.402633119000000050e+01
-2.402855690000000166e+01
-2.402792415000000048e+01
-2.402461896999999880e+01
-2.401970138000000077e+01
-2.401479536000000081e+01
-2.400085783000000106e+01
-2.400455692999999968e+01
-2.401072441000000168e+01
-2.401738415999999887e+01
-2.402253478000000086e+01
-2.402482651000000047e+01
-2.402394964999999871e+01
-2.402058296999999953e+01
-2.401612099999999828e+01
-2.401216838999999936e+01
-2.401534425999999911e+01
-2.401689341000000155e+01
-2.401956895000000003e+01
-2.402265304999999884e+01
-2.402531523000000035e+01
-2.402686033999999893e+01
-2.402694436999999894e+01
-2.402568684999999959e+01
-2.402364999999999995e+01
-2.402165725000000052e+01
-2.401013659999999916e+01
-2.401324733999999950e+01
-2.401832879999999903e+01
-2.402359437999999869e+01
-2.402729455000000058e+01
-2.402833164000000110e+01
-2.402656151000000051e+01
-2.402272022000000007e+01
-2.401811132999999998e+01
-2.401418753000000095e+01
-2.400495156999999935e+01
-2.400766871000000080e+01
-2.401233411999999845e+01
-2.401764318000000031e+01
-2.402212440999999998e+01
-2.402460573000000110e+01
-2.402455373000000094e+01
-2.402229516999999959e+01
-2.401888053000000056e+01
-2.401575048999999851e+01
-2.399765993000000108e+01
-2.400206555999999836e+01
-2.400961540000000127e+01
-2.401813257999999962e+01
-2.402507018000000016e+01
-2.402824766999999895e+01
-2.402655932000000050e+01
-2.402044440999999964e+01
-2.401190070000000176e+01
-2.400391253000000091e+01
-2.401351929999999868e+01
-2.401549331000000009e+01
-2.401882752999999937e+01
-2.402251552999999973e+01
-2.402546500000000052e+01
-2.402687643000000151e+01
-2.402644820000000081e+01
-2.402450479000000172e+01
-2.402185679999999834e+01
-2.401952467999999996e+01
-2.400488474999999866e+01
-2.400830226000000067e+01
-2.401410176999999990e+01
-2.402052533000000167e+01
-2.402559692000000169e+01
-2.402774365999999873e+01
-2.402631158999999883e+01
-2.402182269000000048e+01
-2.401585993999999857e+01
-2.401056142999999921e+01
-2.398876793000000163e+01
-2.399346012999999900e+01
-2.400159813000000142e+01
-2.401100558999999990e+01
-2.401909554999999941e+01
-2.402360423000000011e+01
-2.402330042000000176e+01
-2.401847154000000018e+01
-2.401096154000000027e+01
-2.400363332999999955e+01
-2.397483611999999908e+01
-2.398189534999999850e+01
-2.399419235999999955e+01
-2.400845312999999948e+01
-2.402069557000000088e+01
-2.402728378000000120e+01
-2.402601178000000104e+01
-2.401702643000000137e+01
-2.400308237000000133e+01
-2.398887949999999947e+01
-2.398715844999999902e+01
-2.399275949999999824e+01
-2.400248227999999884e+01
-2.401368770999999924e+01
-2.402320058999999830e+01
-2.402816145999999975e+01
-2.402689196000000038e+01
-2.401959786999999835e+01
-2.400851594999999961e+01
-2.399734863000000118e+01
-2.400428280999999942e+01
-2.400832305999999861e+01
-2.401499709000000138e+01
-2.402204800999999890e+01
-2.402719360000000037e+01
-2.402889697000000169e+01
-2.402679410000000004e+01
-2.402168260999999916e+01
-2.401518936000000082e+01
-2.400925292000000155e+01
-2.400340027000000021e+01
-2.400685986999999955e+01
-2.401275161999999952e+01
-2.401934602000000041e+01
-2.402467289000000150e+01
-2.402712537000000026e+01
-2.402597400000000150e+01
-2.402165902999999858e+01
-2.401571603000000010e+01
-2.401031062999999932e+01
-2.401750287000000128e+01
-2.401846128000000036e+01
-2.402015719999999988e+01
-2.402221027999999947e+01
-2.402417336999999975e+01
-2.402566424000000112e+01
-2.402646286999999958e+01
-2.402657607000000084e+01
-2.402621496000000079e+01
-2.402571371999999883e+01
-2.400048029999999954e+01
-2.400400361000000160e+01
-2.401012838999999843e+01
-2.401721479000000059e+01
-2.402328109000000111e+01
-2.402654124000000024e+01
-2.402599697000000134e+01
-2.402183635000000095e+01
-2.401555511999999837e+01
-2.400952424000000107e+01
-2.401835373999999845e+01
-2.401932795000000098e+01
-2.402103869999999830e+01
-2.402308615999999830e+01
-2.402500082999999975e+01
-2.402638251999999852e+01
-2.402700259999999943e+01
-2.402687179000000128e+01
-2.402621766000000036e+01
-2.402541781000000043e+01
-2.401268888999999973e+01
-2.401540809999999837e+01
-2.401987842000000128e+01
-2.402455618999999842e+01
-2.402789011999999857e+01
-2.402885930000000059e+01
-2.402728018000000176e+01
-2.402376337000000106e+01
-2.401947845000000115e+01
-2.401577393999999899e+01
-2.401844035999999960e+01
-2.401993080000000091e+01
-2.402248048999999952e+01
-2.402535448000000073e+01
-2.402770061000000013e+01
-2.402880783999999892e+01
-2.402833429000000010e+01
-2.402643866000000017e+01
-2.402376058000000114e+01
-2.402123045000000090e+01
-2.400949148000000122e+01
-2.401204107999999948e+01
-2.401640602999999885e+01
-2.402131586999999868e+01
-2.402532562000000027e+01
-2.402725479000000064e+01
-2.402656368999999970e+01
-2.402355984000000078e+01
-2.401933160999999828e+01
-2.401541208000000083e+01
-2.400895016999999854e+01
-2.401152968999999970e+01
-2.401598029000000167e+01
-2.402107857000000024e+01
-2.402538695000000146e+01
-2.402766412000000074e+01
-2.402723733999999922e+01
-2.402428258000000127e+01
-2.401981834000000049e+01
-2.401540750999999929e+01
-2.400265080000000140e+01
-2.400670828999999884e+01
-2.401337819999999823e+01
-2.402036230999999944e+01
-2.402536977000000107e+01
-2.402692148999999944e+01
-2.402475529999999893e+01
-2.401980421000000021e+01
-2.401381110000000163e+01
-2.400875781999999958e+01
-2.399148436999999845e+01
-2.399715175000000045e+01
-2.400663550000000157e+01
-2.401689126999999857e+01
-2.402463093000000072e+01
-2.402743084000000096e+01
-2.402440500000000156e+01
-2.401659890000000175e+01
-2.400667942000000110e+01
-2.399809328999999991e+01
-2.401482363999999947e+01
-2.401677633999999983e+01
-2.402004529999999960e+01
-2.402359428999999835e+01
-2.402633416000000111e+01
-2.402749418000000148e+01
-2.402684531999999962e+01
-2.402477114999999941e+01
-2.402207935999999933e+01
-2.401975970000000160e+01
-2.401596492999999910e+01
-2.401773105999999913e+01
-2.402075733999999940e+01
-2.402418193999999829e+01
-2.402700614999999829e+01
-2.402839280999999971e+01
-2.402793987000000087e+01
-2.402583359999999857e+01
-2.402281860000000080e+01
-2.401998833000000033e+01
-2.398206917999999988e+01
-2.398798237000000100e+01
-2.399829477000000111e+01
-2.401028056999999905e+01
-2.402061941999999917e+01
-2.402626422999999889e+01
-2.402537715000000063e+01
-2.401809224999999870e+01
-2.400674257000000011e+01
-2.399528962000000121e+01
-2.401013810999999976e+01
-2.401254099000000153e+01
-2.401666913000000037e+01
-2.402136812999999904e+01
-2.402530120000000124e+01
-2.402734110000000101e+01
-2.402693627000000021e+01
-2.402429722999999839e+01
-2.402039471999999876e+01
-2.401665725999999879e+01
-2.399358355000000032e+01
-2.399806973999999826e+01
-2.400584016000000176e+01
-2.401479747000000131e+01
-2.402243218999999996e+01
-2.402653199999999956e+01
-2.402586940999999854e+01
-2.402066123999999903e+01
-2.401269118000000091e+01
-2.400474553000000100e+01
-2.400177178999999938e+01
-2.400547037000000117e+01
-2.401187789000000095e+01
-2.401923380999999935e+01
-2.402539816000000172e+01
-2.402844181000000034e+01
-2.402726617000000076e+01
-2.402210578000000041e+01
-2.401465466000000148e+01
-2.400759769000000077e+01
-2.397948334000000159e+01
-2.398701774999999969e+01
-2.399941859000000122e+01
-2.401245374000000155e+01
-2.402191510999999835e+01
-2.402508498999999986e+01
-2.402146284999999892e+01
-2.401268496999999869e+01
-2.400182557999999844e+01
-2.399236167000000108e+01
