    5    5   10    1
  0.1903599E+03  0.9768621E-09  0.9944155E-09  0.9798289E-09  0.5000000E-15
  1.000000000000000E-004
  CAR 
 unknown system                          
      8      4      8
 
  0.2500000E+00  0.2500000E+00  0.2500000E+00  0.2500000E+00
    1      -16.739914   1.000000
    2       -9.254437   1.000000
    3       -9.216870   1.000000
    4       -9.158110   1.000000
    5       -0.333189   0.000000
    6        0.600817   0.000000
    7        0.687116   0.000000
    8        0.712755   0.000000
 
 -0.2500000E+00  0.2500000E+00  0.2500000E+00  0.2500000E+00
    1      -16.739924   1.000000
    2       -9.254490   1.000000
    3       -9.216926   1.000000
    4       -9.158180   1.000000
    5       -0.334347   0.000000
    6        0.594434   0.000000
    7        0.690925   0.000000
    8        0.717993   0.000000
 
  0.2500000E+00 -0.2500000E+00  0.2500000E+00  0.2500000E+00
    1      -16.739920   1.000000
    2       -9.254525   1.000000
    3       -9.216930   1.000000
    4       -9.158103   1.000000
    5       -0.333660   0.000000
    6        0.592960   0.000000
    7        0.691281   0.000000
    8        0.715956   0.000000
 
 -0.2500000E+00 -0.2500000E+00  0.2500000E+00  0.2500000E+00
    1      -16.739982   1.000000
    2       -9.254466   1.000000
    3       -9.216864   1.000000
    4       -9.158193   1.000000
    5       -0.334468   0.000000
    6        0.603203   0.000000
    7        0.690346   0.000000
    8        0.715016   0.000000
