   5   5   0   0
  0.2113351E+03  0.1026615E-08  0.1023847E-08  0.1005960E-08  0.5000000E-15
  1.000000000000000E-004
  CAR 
 unknown system                          
      2.70600888    -19.01257858  301     -8.29800473      1.00000000
    -19.013  0.0000E+00  0.0000E+00
    -18.940  0.0000E+00  0.0000E+00
    -18.868  0.0000E+00  0.0000E+00
    -18.795  0.0000E+00  0.0000E+00
    -18.723  0.0000E+00  0.0000E+00
    -18.651  0.0000E+00  0.0000E+00
    -18.578  0.0000E+00  0.0000E+00
    -18.506  0.0000E+00  0.0000E+00
    -18.433  0.0000E+00  0.0000E+00
    -18.361  0.0000E+00  0.0000E+00
    -18.289  0.0000E+00  0.0000E+00
    -18.216  0.0000E+00  0.0000E+00
    -18.144  0.1265E-13  0.9104E-15
    -18.071  0.6845E-12  0.5017E-13
    -17.999  0.2950E-10  0.2173E-11
    -17.927  0.9838E-09  0.7296E-10
    -17.854  0.2542E-07  0.1902E-08
    -17.782  0.5087E-06  0.3850E-07
    -17.709  0.7889E-05  0.6061E-06
    -17.637  0.9483E-04  0.7429E-05
    -17.565  0.8839E-03  0.7102E-04
    -17.492  0.6390E-02  0.5307E-03
    -17.420  0.3584E-01  0.3109E-02
    -17.347  0.1560E+00  0.1433E-01
    -17.275  0.5272E+00  0.5224E-01
    -17.203  0.1383E+01  0.1517E+00
    -17.130  0.2820E+01  0.3545E+00
    -17.058  0.4466E+01  0.6755E+00
    -16.986  0.5497E+01  0.1071E+01
    -16.913  0.5260E+01  0.1449E+01
    -16.841  0.3913E+01  0.1730E+01
    -16.768  0.2264E+01  0.1892E+01
    -16.696  0.1019E+01  0.1966E+01
    -16.624  0.3567E+00  0.1991E+01
    -16.551  0.9717E-01  0.1998E+01
    -16.479  0.2059E-01  0.2000E+01
    -16.406  0.3397E-02  0.2000E+01
    -16.334  0.4360E-03  0.2000E+01
    -16.262  0.4356E-04  0.2000E+01
    -16.189  0.3387E-05  0.2000E+01
    -16.117  0.2049E-06  0.2000E+01
    -16.044  0.9653E-08  0.2000E+01
    -15.972  0.3539E-09  0.2000E+01
    -15.900  0.1010E-10  0.2000E+01
    -15.827  0.2247E-12  0.2000E+01
    -15.755  0.3412E-14  0.2000E+01
    -15.682  0.0000E+00  0.2000E+01
    -15.610  0.0000E+00  0.2000E+01
    -15.538  0.0000E+00  0.2000E+01
    -15.465  0.0000E+00  0.2000E+01
    -15.393  0.0000E+00  0.2000E+01
    -15.320  0.0000E+00  0.2000E+01
    -15.248  0.0000E+00  0.2000E+01
    -15.176  0.0000E+00  0.2000E+01
    -15.103  0.0000E+00  0.2000E+01
    -15.031  0.0000E+00  0.2000E+01
    -14.958  0.0000E+00  0.2000E+01
    -14.886  0.0000E+00  0.2000E+01
    -14.814  0.0000E+00  0.2000E+01
    -14.741  0.0000E+00  0.2000E+01
    -14.669  0.0000E+00  0.2000E+01
    -14.596  0.0000E+00  0.2000E+01
    -14.524  0.0000E+00  0.2000E+01
    -14.452  0.0000E+00  0.2000E+01
    -14.379  0.0000E+00  0.2000E+01
    -14.307  0.0000E+00  0.2000E+01
    -14.234  0.0000E+00  0.2000E+01
    -14.162  0.0000E+00  0.2000E+01
    -14.090  0.0000E+00  0.2000E+01
    -14.017  0.0000E+00  0.2000E+01
    -13.945  0.0000E+00  0.2000E+01
    -13.873  0.0000E+00  0.2000E+01
    -13.800  0.0000E+00  0.2000E+01
    -13.728  0.0000E+00  0.2000E+01
    -13.655  0.0000E+00  0.2000E+01
    -13.583  0.0000E+00  0.2000E+01
    -13.511  0.0000E+00  0.2000E+01
    -13.438  0.0000E+00  0.2000E+01
    -13.366  0.0000E+00  0.2000E+01
    -13.293  0.0000E+00  0.2000E+01
    -13.221  0.0000E+00  0.2000E+01
    -13.149  0.0000E+00  0.2000E+01
    -13.076  0.0000E+00  0.2000E+01
    -13.004  0.0000E+00  0.2000E+01
    -12.931  0.0000E+00  0.2000E+01
    -12.859  0.0000E+00  0.2000E+01
    -12.787  0.0000E+00  0.2000E+01
    -12.714  0.0000E+00  0.2000E+01
    -12.642  0.0000E+00  0.2000E+01
    -12.569  0.0000E+00  0.2000E+01
    -12.497  0.0000E+00  0.2000E+01
    -12.425  0.0000E+00  0.2000E+01
    -12.352  0.0000E+00  0.2000E+01
    -12.280  0.0000E+00  0.2000E+01
    -12.207  0.0000E+00  0.2000E+01
    -12.135  0.0000E+00  0.2000E+01
    -12.063  0.0000E+00  0.2000E+01
    -11.990  0.0000E+00  0.2000E+01
    -11.918  0.0000E+00  0.2000E+01
    -11.845  0.0000E+00  0.2000E+01
    -11.773  0.0000E+00  0.2000E+01
    -11.701  0.0000E+00  0.2000E+01
    -11.628  0.0000E+00  0.2000E+01
    -11.556  0.0000E+00  0.2000E+01
    -11.483  0.0000E+00  0.2000E+01
    -11.411  0.0000E+00  0.2000E+01
    -11.339  0.0000E+00  0.2000E+01
    -11.266  0.0000E+00  0.2000E+01
    -11.194  0.0000E+00  0.2000E+01
    -11.121  0.0000E+00  0.2000E+01
    -11.049  0.0000E+00  0.2000E+01
    -10.977  0.0000E+00  0.2000E+01
    -10.904  0.0000E+00  0.2000E+01
    -10.832  0.0000E+00  0.2000E+01
    -10.760  0.0000E+00  0.2000E+01
    -10.687  0.0000E+00  0.2000E+01
    -10.615  0.5742E-14  0.2000E+01
    -10.542  0.3228E-12  0.2000E+01
    -10.470  0.1398E-10  0.2000E+01
    -10.398  0.4729E-09  0.2000E+01
    -10.325  0.1251E-07  0.2000E+01
    -10.253  0.2590E-06  0.2000E+01
    -10.180  0.4202E-05  0.2000E+01
    -10.108  0.5348E-04  0.2000E+01
    -10.036  0.5346E-03  0.2000E+01
     -9.963  0.4202E-02  0.2000E+01
     -9.891  0.2600E-01  0.2002E+01
     -9.818  0.1268E+00  0.2011E+01
     -9.746  0.4883E+00  0.2046E+01
     -9.674  0.1487E+01  0.2153E+01
     -9.601  0.3593E+01  0.2411E+01
     -9.529  0.6924E+01  0.2909E+01
     -9.456  0.1073E+02  0.3680E+01
     -9.384  0.1354E+02  0.4653E+01
     -9.312  0.1412E+02  0.5669E+01
     -9.239  0.1238E+02  0.6559E+01
     -9.167  0.9213E+01  0.7221E+01
     -9.094  0.5809E+01  0.7638E+01
     -9.022  0.3066E+01  0.7859E+01
     -8.950  0.1332E+01  0.7954E+01
     -8.877  0.4688E+00  0.7988E+01
     -8.805  0.1319E+00  0.7997E+01
     -8.732  0.2946E-01  0.8000E+01
     -8.660  0.5190E-02  0.8000E+01
     -8.588  0.7191E-03  0.8000E+01
     -8.515  0.7819E-04  0.8000E+01
     -8.443  0.6662E-05  0.8000E+01
     -8.370  0.4444E-06  0.8000E+01
     -8.298  0.2319E-07  0.8000E+01
     -8.226  0.9457E-09  0.8000E+01
     -8.153  0.3013E-10  0.8000E+01
     -8.081  0.7495E-12  0.8000E+01
     -8.008  0.1405E-13  0.8000E+01
     -7.936  0.0000E+00  0.8000E+01
     -7.864  0.0000E+00  0.8000E+01
     -7.791  0.0000E+00  0.8000E+01
     -7.719  0.0000E+00  0.8000E+01
     -7.647  0.0000E+00  0.8000E+01
     -7.574  0.0000E+00  0.8000E+01
     -7.502  0.0000E+00  0.8000E+01
     -7.429  0.0000E+00  0.8000E+01
     -7.357  0.0000E+00  0.8000E+01
     -7.285  0.0000E+00  0.8000E+01
     -7.212  0.0000E+00  0.8000E+01
     -7.140  0.0000E+00  0.8000E+01
     -7.067  0.0000E+00  0.8000E+01
     -6.995  0.0000E+00  0.8000E+01
     -6.923  0.0000E+00  0.8000E+01
     -6.850  0.0000E+00  0.8000E+01
     -6.778  0.0000E+00  0.8000E+01
     -6.705  0.0000E+00  0.8000E+01
     -6.633  0.0000E+00  0.8000E+01
     -6.561  0.0000E+00  0.8000E+01
     -6.488  0.0000E+00  0.8000E+01
     -6.416  0.0000E+00  0.8000E+01
     -6.343  0.0000E+00  0.8000E+01
     -6.271  0.0000E+00  0.8000E+01
     -6.199  0.0000E+00  0.8000E+01
     -6.126  0.0000E+00  0.8000E+01
     -6.054  0.0000E+00  0.8000E+01
     -5.981  0.0000E+00  0.8000E+01
     -5.909  0.0000E+00  0.8000E+01
     -5.837  0.0000E+00  0.8000E+01
     -5.764  0.0000E+00  0.8000E+01
     -5.692  0.0000E+00  0.8000E+01
     -5.619  0.0000E+00  0.8000E+01
     -5.547  0.0000E+00  0.8000E+01
     -5.475  0.0000E+00  0.8000E+01
     -5.402  0.0000E+00  0.8000E+01
     -5.330  0.0000E+00  0.8000E+01
     -5.257  0.0000E+00  0.8000E+01
     -5.185  0.0000E+00  0.8000E+01
     -5.113  0.0000E+00  0.8000E+01
     -5.040  0.0000E+00  0.8000E+01
     -4.968  0.0000E+00  0.8000E+01
     -4.895  0.0000E+00  0.8000E+01
     -4.823  0.0000E+00  0.8000E+01
     -4.751  0.0000E+00  0.8000E+01
     -4.678  0.0000E+00  0.8000E+01
     -4.606  0.0000E+00  0.8000E+01
     -4.534  0.0000E+00  0.8000E+01
     -4.461  0.0000E+00  0.8000E+01
     -4.389  0.0000E+00  0.8000E+01
     -4.316  0.0000E+00  0.8000E+01
     -4.244  0.0000E+00  0.8000E+01
     -4.172  0.0000E+00  0.8000E+01
     -4.099  0.0000E+00  0.8000E+01
     -4.027  0.0000E+00  0.8000E+01
     -3.954  0.0000E+00  0.8000E+01
     -3.882  0.0000E+00  0.8000E+01
     -3.810  0.0000E+00  0.8000E+01
     -3.737  0.0000E+00  0.8000E+01
     -3.665  0.0000E+00  0.8000E+01
     -3.592  0.0000E+00  0.8000E+01
     -3.520  0.0000E+00  0.8000E+01
     -3.448  0.0000E+00  0.8000E+01
     -3.375  0.0000E+00  0.8000E+01
     -3.303  0.0000E+00  0.8000E+01
     -3.230  0.0000E+00  0.8000E+01
     -3.158  0.0000E+00  0.8000E+01
     -3.086  0.0000E+00  0.8000E+01
     -3.013  0.0000E+00  0.8000E+01
     -2.941  0.0000E+00  0.8000E+01
     -2.868  0.0000E+00  0.8000E+01
     -2.796  0.0000E+00  0.8000E+01
     -2.724  0.0000E+00  0.8000E+01
     -2.651  0.0000E+00  0.8000E+01
     -2.579  0.0000E+00  0.8000E+01
     -2.506  0.0000E+00  0.8000E+01
     -2.434  0.0000E+00  0.8000E+01
     -2.362  0.0000E+00  0.8000E+01
     -2.289  0.0000E+00  0.8000E+01
     -2.217  0.0000E+00  0.8000E+01
     -2.144  0.0000E+00  0.8000E+01
     -2.072  0.0000E+00  0.8000E+01
     -2.000  0.0000E+00  0.8000E+01
     -1.927  0.0000E+00  0.8000E+01
     -1.855  0.0000E+00  0.8000E+01
     -1.782  0.0000E+00  0.8000E+01
     -1.710  0.0000E+00  0.8000E+01
     -1.638  0.0000E+00  0.8000E+01
     -1.565  0.1554E-15  0.8000E+01
     -1.493  0.1819E-13  0.8000E+01
     -1.421  0.9312E-12  0.8000E+01
     -1.348  0.3720E-10  0.8000E+01
     -1.276  0.1158E-08  0.8000E+01
     -1.203  0.2811E-07  0.8000E+01
     -1.131  0.5321E-06  0.8000E+01
     -1.059  0.7862E-05  0.8000E+01
     -0.986  0.9073E-04  0.8000E+01
     -0.914  0.8181E-03  0.8000E+01
     -0.841  0.5769E-02  0.8000E+01
     -0.769  0.3182E-01  0.8003E+01
     -0.697  0.1374E+00  0.8013E+01
     -0.624  0.4650E+00  0.8046E+01
     -0.552  0.1232E+01  0.8134E+01
     -0.479  0.2560E+01  0.8318E+01
     -0.407  0.4169E+01  0.8618E+01
     -0.335  0.5320E+01  0.9000E+01
     -0.262  0.5321E+01  0.9383E+01
     -0.190  0.4168E+01  0.9682E+01
     -0.117  0.2556E+01  0.9866E+01
     -0.045  0.1227E+01  0.9955E+01
      0.027  0.4661E+00  0.9988E+01
      0.100  0.1703E+00  0.1000E+02
      0.172  0.1914E+00  0.1001E+02
      0.245  0.5827E+00  0.1006E+02
      0.317  0.1662E+01  0.1018E+02
      0.389  0.3861E+01  0.1045E+02
      0.462  0.7308E+01  0.1098E+02
      0.534  0.1133E+02  0.1179E+02
      0.607  0.1442E+02  0.1283E+02
      0.679  0.1502E+02  0.1391E+02
      0.751  0.1271E+02  0.1482E+02
      0.824  0.8673E+01  0.1545E+02
      0.896  0.4731E+01  0.1579E+02
      0.969  0.2048E+01  0.1593E+02
      1.041  0.6994E+00  0.1598E+02
      1.113  0.1878E+00  0.1600E+02
      1.186  0.3949E-01  0.1600E+02
      1.258  0.6494E-02  0.1600E+02
      1.330  0.8335E-03  0.1600E+02
      1.403  0.8341E-04  0.1600E+02
      1.475  0.6501E-05  0.1600E+02
      1.548  0.3943E-06  0.1600E+02
      1.620  0.1861E-07  0.1600E+02
      1.692  0.6824E-09  0.1600E+02
      1.765  0.1945E-10  0.1600E+02
      1.837  0.4312E-12  0.1600E+02
      1.910  0.6480E-14  0.1600E+02
      1.982  0.0000E+00  0.1600E+02
      2.054  0.0000E+00  0.1600E+02
      2.127  0.0000E+00  0.1600E+02
      2.199  0.0000E+00  0.1600E+02
      2.272  0.0000E+00  0.1600E+02
      2.344  0.0000E+00  0.1600E+02
      2.416  0.0000E+00  0.1600E+02
      2.489  0.0000E+00  0.1600E+02
      2.561  0.0000E+00  0.1600E+02
      2.634  0.0000E+00  0.1600E+02
      2.706  0.0000E+00  0.1600E+02
      2.71303266    -19.02663928  301     -8.30166369      1.00000000
    -19.027  0.0000E+00  0.0000E+00
    -18.954  0.0000E+00  0.0000E+00
    -18.882  0.0000E+00  0.0000E+00
    -18.809  0.0000E+00  0.0000E+00
    -18.737  0.0000E+00  0.0000E+00
    -18.664  0.0000E+00  0.0000E+00
    -18.592  0.0000E+00  0.0000E+00
    -18.519  0.0000E+00  0.0000E+00
    -18.447  0.0000E+00  0.0000E+00
    -18.374  0.0000E+00  0.0000E+00
    -18.302  0.0000E+00  0.0000E+00
    -18.230  0.0000E+00  0.0000E+00
    -18.157  0.1838E-14  0.1332E-15
    -18.085  0.1000E-12  0.7380E-14
    -18.012  0.4319E-11  0.3203E-12
    -17.940  0.1438E-09  0.1074E-10
    -17.867  0.3698E-08  0.2787E-09
    -17.795  0.7337E-07  0.5595E-08
    -17.722  0.1124E-05  0.8705E-07
    -17.650  0.1330E-04  0.1051E-05
    -17.577  0.1215E-03  0.9859E-05
    -17.505  0.8583E-03  0.7206E-04
    -17.432  0.4684E-02  0.4115E-03
    -17.360  0.1976E-01  0.1843E-02
    -17.287  0.6443E-01  0.6512E-02
    -17.215  0.1625E+00  0.1829E-01
    -17.143  0.3168E+00  0.4124E-01
    -17.070  0.4778E+00  0.7587E-01
    -16.998  0.5574E+00  0.1163E+00
    -16.925  0.5029E+00  0.1527E+00
    -16.853  0.3509E+00  0.1781E+00
    -16.780  0.1894E+00  0.1919E+00
    -16.708  0.7905E-01  0.1976E+00
    -16.635  0.2551E-01  0.1994E+00
    -16.563  0.6367E-02  0.1999E+00
    -16.490  0.1228E-02  0.2000E+00
    -16.418  0.1831E-03  0.2000E+00
    -16.345  0.2108E-04  0.2000E+00
    -16.273  0.1876E-05  0.2000E+00
    -16.200  0.1289E-06  0.2000E+00
    -16.128  0.6840E-08  0.2000E+00
    -16.056  0.2802E-09  0.2000E+00
    -15.983  0.8857E-11  0.2000E+00
    -15.911  0.2159E-12  0.2000E+00
    -15.838  0.4290E-14  0.2000E+00
    -15.766  0.0000E+00  0.2000E+00
    -15.693  0.0000E+00  0.2000E+00
    -15.621  0.0000E+00  0.2000E+00
    -15.548  0.0000E+00  0.2000E+00
    -15.476  0.0000E+00  0.2000E+00
    -15.403  0.0000E+00  0.2000E+00
    -15.331  0.0000E+00  0.2000E+00
    -15.258  0.0000E+00  0.2000E+00
    -15.186  0.0000E+00  0.2000E+00
    -15.113  0.0000E+00  0.2000E+00
    -15.041  0.0000E+00  0.2000E+00
    -14.969  0.0000E+00  0.2000E+00
    -14.896  0.0000E+00  0.2000E+00
    -14.824  0.0000E+00  0.2000E+00
    -14.751  0.0000E+00  0.2000E+00
    -14.679  0.0000E+00  0.2000E+00
    -14.606  0.0000E+00  0.2000E+00
    -14.534  0.0000E+00  0.2000E+00
    -14.461  0.0000E+00  0.2000E+00
    -14.389  0.0000E+00  0.2000E+00
    -14.316  0.0000E+00  0.2000E+00
    -14.244  0.0000E+00  0.2000E+00
    -14.171  0.0000E+00  0.2000E+00
    -14.099  0.0000E+00  0.2000E+00
    -14.027  0.0000E+00  0.2000E+00
    -13.954  0.0000E+00  0.2000E+00
    -13.882  0.0000E+00  0.2000E+00
    -13.809  0.0000E+00  0.2000E+00
    -13.737  0.0000E+00  0.2000E+00
    -13.664  0.0000E+00  0.2000E+00
    -13.592  0.0000E+00  0.2000E+00
    -13.519  0.0000E+00  0.2000E+00
    -13.447  0.0000E+00  0.2000E+00
    -13.374  0.0000E+00  0.2000E+00
    -13.302  0.0000E+00  0.2000E+00
    -13.229  0.0000E+00  0.2000E+00
    -13.157  0.0000E+00  0.2000E+00
    -13.084  0.0000E+00  0.2000E+00
    -13.012  0.0000E+00  0.2000E+00
    -12.940  0.0000E+00  0.2000E+00
    -12.867  0.0000E+00  0.2000E+00
    -12.795  0.0000E+00  0.2000E+00
    -12.722  0.0000E+00  0.2000E+00
    -12.650  0.0000E+00  0.2000E+00
    -12.577  0.0000E+00  0.2000E+00
    -12.505  0.0000E+00  0.2000E+00
    -12.432  0.0000E+00  0.2000E+00
    -12.360  0.0000E+00  0.2000E+00
    -12.287  0.0000E+00  0.2000E+00
    -12.215  0.0000E+00  0.2000E+00
    -12.142  0.0000E+00  0.2000E+00
    -12.070  0.0000E+00  0.2000E+00
    -11.997  0.0000E+00  0.2000E+00
    -11.925  0.0000E+00  0.2000E+00
    -11.853  0.0000E+00  0.2000E+00
    -11.780  0.0000E+00  0.2000E+00
    -11.708  0.0000E+00  0.2000E+00
    -11.635  0.0000E+00  0.2000E+00
    -11.563  0.0000E+00  0.2000E+00
    -11.490  0.0000E+00  0.2000E+00
    -11.418  0.0000E+00  0.2000E+00
    -11.345  0.0000E+00  0.2000E+00
    -11.273  0.0000E+00  0.2000E+00
    -11.200  0.0000E+00  0.2000E+00
    -11.128  0.0000E+00  0.2000E+00
    -11.055  0.0000E+00  0.2000E+00
    -10.983  0.0000E+00  0.2000E+00
    -10.910  0.0000E+00  0.2000E+00
    -10.838  0.0000E+00  0.2000E+00
    -10.766  0.0000E+00  0.2000E+00
    -10.693  0.0000E+00  0.2000E+00
    -10.621  0.0000E+00  0.2000E+00
    -10.548  0.1838E-14  0.2000E+00
    -10.476  0.1046E-12  0.2000E+00
    -10.403  0.4640E-11  0.2000E+00
    -10.331  0.1589E-09  0.2000E+00
    -10.258  0.4211E-08  0.2000E+00
    -10.186  0.8634E-07  0.2000E+00
    -10.113  0.1370E-05  0.2000E+00
    -10.041  0.1685E-04  0.2000E+00
     -9.968  0.1607E-03  0.2000E+00
     -9.896  0.1189E-02  0.2001E+00
     -9.824  0.6843E-02  0.2006E+00
     -9.751  0.3065E-01  0.2028E+00
     -9.679  0.1072E+00  0.2106E+00
     -9.606  0.2932E+00  0.2318E+00
     -9.534  0.6307E+00  0.2775E+00
     -9.461  0.1071E+01  0.3552E+00
     -9.389  0.1444E+01  0.4598E+00
     -9.316  0.1554E+01  0.5725E+00
     -9.244  0.1342E+01  0.6697E+00
     -9.171  0.9316E+00  0.7372E+00
     -9.099  0.5202E+00  0.7749E+00
     -9.026  0.2330E+00  0.7918E+00
     -8.954  0.8334E-01  0.7978E+00
     -8.881  0.2366E-01  0.7995E+00
     -8.809  0.5304E-02  0.7999E+00
     -8.737  0.9333E-03  0.8000E+00
     -8.664  0.1284E-03  0.8000E+00
     -8.592  0.1376E-04  0.8000E+00
     -8.519  0.1146E-05  0.8000E+00
     -8.447  0.7401E-07  0.8000E+00
     -8.374  0.3701E-08  0.8000E+00
     -8.302  0.1431E-09  0.8000E+00
     -8.229  0.4279E-11  0.8000E+00
     -8.157  0.9874E-13  0.8000E+00
     -8.084  0.1838E-14  0.8000E+00
     -8.012  0.0000E+00  0.8000E+00
     -7.939  0.0000E+00  0.8000E+00
     -7.867  0.0000E+00  0.8000E+00
     -7.794  0.0000E+00  0.8000E+00
     -7.722  0.0000E+00  0.8000E+00
     -7.650  0.0000E+00  0.8000E+00
     -7.577  0.0000E+00  0.8000E+00
     -7.505  0.0000E+00  0.8000E+00
     -7.432  0.0000E+00  0.8000E+00
     -7.360  0.0000E+00  0.8000E+00
     -7.287  0.0000E+00  0.8000E+00
     -7.215  0.0000E+00  0.8000E+00
     -7.142  0.0000E+00  0.8000E+00
     -7.070  0.0000E+00  0.8000E+00
     -6.997  0.0000E+00  0.8000E+00
     -6.925  0.0000E+00  0.8000E+00
     -6.852  0.0000E+00  0.8000E+00
     -6.780  0.0000E+00  0.8000E+00
     -6.707  0.0000E+00  0.8000E+00
     -6.635  0.0000E+00  0.8000E+00
     -6.563  0.0000E+00  0.8000E+00
     -6.490  0.0000E+00  0.8000E+00
     -6.418  0.0000E+00  0.8000E+00
     -6.345  0.0000E+00  0.8000E+00
     -6.273  0.0000E+00  0.8000E+00
     -6.200  0.0000E+00  0.8000E+00
     -6.128  0.0000E+00  0.8000E+00
     -6.055  0.0000E+00  0.8000E+00
     -5.983  0.0000E+00  0.8000E+00
     -5.910  0.0000E+00  0.8000E+00
     -5.838  0.0000E+00  0.8000E+00
     -5.765  0.0000E+00  0.8000E+00
     -5.693  0.0000E+00  0.8000E+00
     -5.621  0.0000E+00  0.8000E+00
     -5.548  0.0000E+00  0.8000E+00
     -5.476  0.0000E+00  0.8000E+00
     -5.403  0.0000E+00  0.8000E+00
     -5.331  0.0000E+00  0.8000E+00
     -5.258  0.0000E+00  0.8000E+00
     -5.186  0.0000E+00  0.8000E+00
     -5.113  0.0000E+00  0.8000E+00
     -5.041  0.0000E+00  0.8000E+00
     -4.968  0.0000E+00  0.8000E+00
     -4.896  0.0000E+00  0.8000E+00
     -4.823  0.0000E+00  0.8000E+00
     -4.751  0.0000E+00  0.8000E+00
     -4.678  0.0000E+00  0.8000E+00
     -4.606  0.0000E+00  0.8000E+00
     -4.534  0.0000E+00  0.8000E+00
     -4.461  0.0000E+00  0.8000E+00
     -4.389  0.0000E+00  0.8000E+00
     -4.316  0.0000E+00  0.8000E+00
     -4.244  0.0000E+00  0.8000E+00
     -4.171  0.0000E+00  0.8000E+00
     -4.099  0.0000E+00  0.8000E+00
     -4.026  0.0000E+00  0.8000E+00
     -3.954  0.0000E+00  0.8000E+00
     -3.881  0.0000E+00  0.8000E+00
     -3.809  0.0000E+00  0.8000E+00
     -3.736  0.0000E+00  0.8000E+00
     -3.664  0.0000E+00  0.8000E+00
     -3.591  0.0000E+00  0.8000E+00
     -3.519  0.0000E+00  0.8000E+00
     -3.447  0.0000E+00  0.8000E+00
     -3.374  0.0000E+00  0.8000E+00
     -3.302  0.0000E+00  0.8000E+00
     -3.229  0.0000E+00  0.8000E+00
     -3.157  0.0000E+00  0.8000E+00
     -3.084  0.0000E+00  0.8000E+00
     -3.012  0.0000E+00  0.8000E+00
     -2.939  0.0000E+00  0.8000E+00
     -2.867  0.0000E+00  0.8000E+00
     -2.794  0.0000E+00  0.8000E+00
     -2.722  0.0000E+00  0.8000E+00
     -2.649  0.0000E+00  0.8000E+00
     -2.577  0.0000E+00  0.8000E+00
     -2.504  0.0000E+00  0.8000E+00
     -2.432  0.0000E+00  0.8000E+00
     -2.360  0.0000E+00  0.8000E+00
     -2.287  0.0000E+00  0.8000E+00
     -2.215  0.0000E+00  0.8000E+00
     -2.142  0.0000E+00  0.8000E+00
     -2.070  0.0000E+00  0.8000E+00
     -1.997  0.0000E+00  0.8000E+00
     -1.925  0.0000E+00  0.8000E+00
     -1.852  0.0000E+00  0.8000E+00
     -1.780  0.0000E+00  0.8000E+00
     -1.707  0.0000E+00  0.8000E+00
     -1.635  0.0000E+00  0.8000E+00
     -1.562  0.0000E+00  0.8000E+00
     -1.490  0.0000E+00  0.8000E+00
     -1.418  0.2222E-14  0.8000E+00
     -1.345  0.1211E-12  0.8000E+00
     -1.273  0.5155E-11  0.8000E+00
     -1.200  0.1694E-09  0.8000E+00
     -1.128  0.4296E-08  0.8000E+00
     -1.055  0.8413E-07  0.8000E+00
     -0.983  0.1272E-05  0.8000E+00
     -0.910  0.1486E-04  0.8000E+00
     -0.838  0.1341E-03  0.8000E+00
     -0.765  0.9347E-03  0.8001E+00
     -0.693  0.5037E-02  0.8004E+00
     -0.620  0.2099E-01  0.8020E+00
     -0.548  0.6761E-01  0.8069E+00
     -0.475  0.1684E+00  0.8191E+00
     -0.403  0.3246E+00  0.8426E+00
     -0.331  0.4837E+00  0.8776E+00
     -0.258  0.5577E+00  0.9181E+00
     -0.186  0.4974E+00  0.9541E+00
     -0.113  0.3432E+00  0.9790E+00
     -0.041  0.1832E+00  0.9922E+00
      0.032  0.7583E-01  0.9977E+00
      0.104  0.2566E-01  0.9996E+00
      0.177  0.1399E-01  0.1001E+01
      0.249  0.3439E-01  0.1003E+01
      0.322  0.1091E+00  0.1011E+01
      0.394  0.2847E+00  0.1032E+01
      0.467  0.5971E+00  0.1075E+01
      0.539  0.1011E+01  0.1148E+01
      0.612  0.1388E+01  0.1249E+01
      0.684  0.1541E+01  0.1360E+01
      0.756  0.1379E+01  0.1460E+01
      0.829  0.9884E+00  0.1532E+01
      0.901  0.5633E+00  0.1573E+01
      0.974  0.2536E+00  0.1591E+01
      1.046  0.8975E-01  0.1598E+01
      1.119  0.2486E-01  0.1600E+01
      1.191  0.5374E-02  0.1600E+01
      1.264  0.9046E-03  0.1600E+01
      1.336  0.1184E-03  0.1600E+01
      1.409  0.1203E-04  0.1600E+01
      1.481  0.9484E-06  0.1600E+01
      1.554  0.5797E-07  0.1600E+01
      1.626  0.2746E-08  0.1600E+01
      1.699  0.1007E-09  0.1600E+01
      1.771  0.2861E-11  0.1600E+01
      1.843  0.6304E-13  0.1600E+01
      1.916  0.8426E-15  0.1600E+01
      1.988  0.0000E+00  0.1600E+01
      2.061  0.0000E+00  0.1600E+01
      2.133  0.0000E+00  0.1600E+01
      2.206  0.0000E+00  0.1600E+01
      2.278  0.0000E+00  0.1600E+01
      2.351  0.0000E+00  0.1600E+01
      2.423  0.0000E+00  0.1600E+01
      2.496  0.0000E+00  0.1600E+01
      2.568  0.0000E+00  0.1600E+01
      2.641  0.0000E+00  0.1600E+01
      2.713  0.0000E+00  0.1600E+01
