    5    5   10    1
  0.2113351E+03  0.1026615E-08  0.1023847E-08  0.1005960E-08  0.5000000E-15
  1.000000000000000E-004
  CAR 
 unknown system                          
      8      4      8
 
  0.2500000E+00  0.2500000E+00  0.2500000E+00  0.2500000E+00
    1      -17.026606   1.000000
    2       -9.415483   1.000000
    3       -9.383988   1.000000
    4       -9.287527   1.000000
    5       -0.294552   0.000000
    6        0.572642   0.000000
    7        0.677453   0.000000
    8        0.713033   0.000000
 
 -0.2500000E+00  0.2500000E+00  0.2500000E+00  0.2500000E+00
    1      -17.026628   1.000000
    2       -9.415525   1.000000
    3       -9.383936   1.000000
    4       -9.287570   1.000000
    5       -0.291126   0.000000
    6        0.562432   0.000000
    7        0.671538   0.000000
    8        0.699712   0.000000
 
  0.2500000E+00 -0.2500000E+00  0.2500000E+00  0.2500000E+00
    1      -17.026633   1.000000
    2       -9.415508   1.000000
    3       -9.384015   1.000000
    4       -9.287573   1.000000
    5       -0.290487   0.000000
    6        0.561655   0.000000
    7        0.673672   0.000000
    8        0.696934   0.000000
 
 -0.2500000E+00 -0.2500000E+00  0.2500000E+00  0.2500000E+00
    1      -17.026639   1.000000
    2       -9.415571   1.000000
    3       -9.384026   1.000000
    4       -9.287574   1.000000
    5       -0.285227   0.000000
    6        0.554601   0.000000
    7        0.659288   0.000000
    8        0.682815   0.000000
