       N       E                     dE             d eps       ncg     rms          rms(c)
DAV:   1     0.144841765059E+02    0.14484E+02   -0.20111E+03    96   0.421E+02
DAV:   2    -0.227634287240E+02   -0.37248E+02   -0.37246E+02    72   0.112E+02
DAV:   3    -0.270629665516E+02   -0.42995E+01   -0.42995E+01    64   0.410E+01
DAV:   4    -0.272628066587E+02   -0.19984E+00   -0.19984E+00   128   0.981E+00
DAV:   5    -0.272628950418E+02   -0.88383E-04   -0.88383E-04    96   0.221E-01    0.837E+00
RMM:   6    -0.245866362322E+02    0.26763E+01   -0.49291E+00    64   0.135E+01    0.415E+00
RMM:   7    -0.241344043431E+02    0.45223E+00   -0.10411E+00    64   0.586E+00    0.222E+00
RMM:   8    -0.239916007989E+02    0.14280E+00   -0.16269E-01    64   0.285E+00    0.231E-01
RMM:   9    -0.239860741363E+02    0.55267E-02   -0.10705E-02    64   0.681E-01    0.191E-01
RMM:  10    -0.239795730691E+02    0.65011E-02   -0.25245E-02    64   0.859E-01    0.273E-01
RMM:  11    -0.239804255931E+02   -0.85252E-03   -0.95862E-03    64   0.599E-01    0.978E-02
RMM:  12    -0.239895834235E+02   -0.91578E-02   -0.28986E-03    64   0.329E-01    0.119E-01
RMM:  13    -0.239901801327E+02   -0.59671E-03   -0.11146E-03    64   0.182E-01    0.411E-02
RMM:  14    -0.239930807342E+02   -0.29006E-02   -0.12406E-03    64   0.214E-01    0.302E-02
RMM:  15    -0.239933024723E+02   -0.22174E-03   -0.40943E-05    64   0.393E-02    0.216E-02
RMM:  16    -0.239935311305E+02   -0.22866E-03   -0.17960E-04    64   0.767E-02    0.100E-02
RMM:  17    -0.239935623823E+02   -0.31252E-04   -0.22954E-05    64   0.279E-02    0.163E-03
RMM:  18    -0.239935783197E+02   -0.15937E-04   -0.78074E-07    48   0.712E-03    0.771E-04
RMM:  19    -0.239935818644E+02   -0.35447E-05   -0.48876E-07    48   0.420E-03    0.508E-04
RMM:  20    -0.239935832763E+02   -0.14119E-05   -0.62550E-08    44   0.177E-03    0.161E-04
RMM:  21    -0.239935835512E+02   -0.27488E-06    0.00000E+00    32   0.151E-03
    1 T=     1. E= -.23993003E+02 F= -.23993584E+02 E0= -.23993584E+02  EK= 0.58059E-03 SP= 0.00E+00 SK= 0.00E+00
       N       E                     dE             d eps       ncg     rms          rms(c)
DAV:   1    -0.239981069293E+02   -0.45237E-02   -0.50898E-03    72   0.653E-01    0.363E-02
RMM:   2    -0.239980720055E+02    0.34924E-04   -0.11146E-04    64   0.819E-02    0.170E-02
RMM:   3    -0.239980705764E+02    0.14291E-05   -0.72087E-05    64   0.505E-02    0.711E-03
RMM:   4    -0.239980697362E+02    0.84017E-06   -0.13486E-06    48   0.101E-02
    2 T=    10. E= -.23993084E+02 F= -.23998070E+02 E0= -.23998070E+02  EK= 0.49856E-02 SP= 0.00E+00 SK= 0.00E+00
       N       E                     dE             d eps       ncg     rms          rms(c)
DAV:   1    -0.240058390787E+02   -0.77685E-02   -0.43453E-03    72   0.614E-01    0.141E-02
RMM:   2    -0.240058402333E+02   -0.11545E-05   -0.89355E-05    64   0.873E-02    0.847E-03
RMM:   3    -0.240058396142E+02    0.61904E-06   -0.15964E-05    64   0.268E-02    0.205E-03
RMM:   4    -0.240058401614E+02   -0.54719E-06   -0.44160E-07    48   0.657E-03
    3 T=    24. E= -.23993223E+02 F= -.24005840E+02 E0= -.24005840E+02  EK= 0.12617E-01 SP= 0.00E+00 SK= 0.00E+00
       N       E                     dE             d eps       ncg     rms          rms(c)
DAV:   1    -0.240148518060E+02   -0.90122E-02   -0.14519E-03    64   0.253E-01    0.410E-02
RMM:   2    -0.240147963493E+02    0.55457E-04   -0.21450E-04    64   0.104E-01    0.140E-02
RMM:   3    -0.240147966230E+02   -0.27371E-06   -0.76756E-05    64   0.551E-02    0.359E-03
RMM:   4    -0.240147974740E+02   -0.85094E-06   -0.24551E-06    60   0.129E-02
    4 T=    41. E= -.23993380E+02 F= -.24014797E+02 E0= -.24014797E+02  EK= 0.21417E-01 SP= 0.00E+00 SK= 0.00E+00
       N       E                     dE             d eps       ncg     rms          rms(c)
DAV:   1    -0.240224227538E+02   -0.76261E-02   -0.14270E-03    64   0.247E-01    0.310E-03
RMM:   2    -0.240224266194E+02   -0.38657E-05   -0.12404E-05    64   0.314E-02    0.345E-03
RMM:   3    -0.240224268506E+02   -0.23114E-06   -0.37748E-07    48   0.599E-03    0.339E-03
RMM:   4    -0.240224313095E+02   -0.44589E-05   -0.43691E-06    61   0.126E-02    0.190E-03
RMM:   5    -0.240224321889E+02   -0.87946E-06   -0.14748E-07    48   0.326E-03
    5 T=    56. E= -.23993525E+02 F= -.24022432E+02 E0= -.24022432E+02  EK= 0.28907E-01 SP= 0.00E+00 SK= 0.00E+00
       N       E                     dE             d eps       ncg     rms          rms(c)
DAV:   1    -0.240265299065E+02   -0.40986E-02   -0.19458E-03    72   0.284E-01    0.137E-02
RMM:   2    -0.240265287983E+02    0.11082E-05   -0.30586E-05    64   0.505E-02    0.756E-03
RMM:   3    -0.240265323032E+02   -0.35049E-05   -0.25446E-05    64   0.300E-02    0.390E-03
RMM:   4    -0.240265319970E+02    0.30619E-06   -0.10590E-06    48   0.770E-03
    6 T=    64. E= -.23993628E+02 F= -.24026532E+02 E0= -.24026532E+02  EK= 0.32904E-01 SP= 0.00E+00 SK= 0.00E+00
       N       E                     dE             d eps       ncg     rms          rms(c)
DAV:   1    -0.240258541288E+02    0.67817E-03   -0.17199E-03    64   0.286E-01    0.165E-03
RMM:   2    -0.240258589949E+02   -0.48661E-05   -0.12658E-05    64   0.393E-02    0.160E-03
RMM:   3    -0.240258604471E+02   -0.14522E-05   -0.31411E-07    48   0.561E-03    0.156E-03
RMM:   4    -0.240258632787E+02   -0.28317E-05   -0.10126E-07    47   0.250E-03    0.771E-04
RMM:   5    -0.240258674484E+02   -0.41696E-05   -0.17274E-07    48   0.259E-03    0.489E-04
RMM:   6    -0.240258687142E+02   -0.12659E-05    0.00000E+00    32   0.131E-03    0.932E-05
RMM:   7    -0.240258694093E+02   -0.69511E-06   -0.73714E-08    41   0.176E-03
    7 T=    62. E= -.23993639E+02 F= -.24025869E+02 E0= -.24025869E+02  EK= 0.32231E-01 SP= 0.00E+00 SK= 0.00E+00
       N       E                     dE             d eps       ncg     rms          rms(c)
DAV:   1    -0.240206106328E+02    0.52581E-02   -0.13941E-03    64   0.276E-01    0.116E-02
RMM:   2    -0.240206177163E+02   -0.70835E-05   -0.27189E-05    64   0.536E-02    0.478E-03
RMM:   3    -0.240206285171E+02   -0.10801E-04   -0.72279E-06    64   0.174E-02    0.162E-03
RMM:   4    -0.240206343665E+02   -0.58494E-05   -0.23626E-07    48   0.432E-03    0.102E-03
RMM:   5    -0.240206613659E+02   -0.26999E-04   -0.14534E-06    48   0.710E-03    0.252E-03
RMM:   6    -0.240206612360E+02    0.12989E-06   -0.28497E-07    48   0.348E-03
    8 T=    52. E= -.23993534E+02 F= -.24020661E+02 E0= -.24020661E+02  EK= 0.27127E-01 SP= 0.00E+00 SK= 0.00E+00
       N       E                     dE             d eps       ncg     rms          rms(c)
DAV:   1    -0.240126848018E+02    0.79766E-02   -0.10277E-03    64   0.246E-01    0.495E-03
RMM:   2    -0.240126876657E+02   -0.28639E-05   -0.15317E-05    64   0.466E-02    0.210E-03
RMM:   3    -0.240126890893E+02   -0.14236E-05   -0.65800E-07    48   0.675E-03    0.892E-04
RMM:   4    -0.240126903181E+02   -0.12288E-05   -0.37862E-07    48   0.507E-03    0.427E-04
RMM:   5    -0.240126911844E+02   -0.86629E-06   -0.70113E-08    46   0.232E-03
    9 T=    37. E= -.23993368E+02 F= -.24012691E+02 E0= -.24012691E+02  EK= 0.19323E-01 SP= 0.00E+00 SK= 0.00E+00
       N       E                     dE             d eps       ncg     rms          rms(c)
DAV:   1    -0.240047423877E+02    0.79479E-02   -0.56697E-04    64   0.202E-01    0.202E-03
RMM:   2    -0.240047446283E+02   -0.22406E-05   -0.14245E-05    60   0.409E-02    0.312E-03
RMM:   3    -0.240047446493E+02   -0.20999E-07   -0.28322E-07    48   0.542E-03    0.310E-03
RMM:   4    -0.240047455332E+02   -0.88390E-06   -0.12457E-07    48   0.300E-03
   10 T=    22. E= -.23993185E+02 F= -.24004746E+02 E0= -.24004746E+02  EK= 0.11560E-01 SP= 0.00E+00 SK= 0.00E+00
