 vasp.5.4.4.18Apr17-6-g9f103f2a35 (build Nov 25 2021 15:25:00) complex          
  
 executed on             LinuxIFC date 2022.02.21  10:17:25
 running on   16 total cores
 distrk:  each k-point on   16 cores,    1 groups
 distr:  one band on NCORES_PER_BAND=   4 cores,    4 groups


--------------------------------------------------------------------------------------------------------


 INCAR:
 POTCAR:    PAW_PBE H 15Jun2001                   
 POTCAR:    PAW_PBE C 08Apr2002                   
 POTCAR:    PAW_PBE H 15Jun2001                   
   VRHFIN =H: ultrasoft test                                                    
   LEXCH  = PE                                                                  
   EATOM  =    12.4884 eV,    0.9179 Ry                                         
                                                                                
   TITEL  = PAW_PBE H 15Jun2001                                                 
   LULTRA =        F    use ultrasoft PP ?                                      
   IUNSCR =        0    unscreen: 0-lin 1-nonlin 2-no                           
   RPACOR =    0.000    partial core radius                                     
   POMASS =    1.000; ZVAL   =    1.000    mass and valenz                      
   RCORE  =    1.100    outmost cutoff radius                                   
   RWIGS  =    0.700; RWIGS  =    0.370    wigner-seitz radius (au A)           
   ENMAX  =  250.000; ENMIN  =  200.000 eV                                      
   RCLOC  =    0.701    cutoff for local pot                                    
   LCOR   =        T    correct aug charges                                     
   LPAW   =        T    paw PP                                                  
   EAUG   =  400.000                                                            
   RMAX   =    1.123    core radius for proj-oper                               
   RAUG   =    1.200    factor for augmentation sphere                          
   RDEP   =    1.112    radius for radial grids                                 
   RDEPT  =    0.926    core radius for aug-charge                              
                                                                                
   Atomic configuration                                                         
    2 entries                                                                   
     n  l   j            E        occ.                                          
     1  0  0.50        -6.4927   1.0000                                         
     2  1  0.50        -3.4015   0.0000                                         
   Description                                                                  
     l       E           TYP  RCUT    TYP  RCUT                                 
     0     -6.4927494     23  1.100                                             
     0      6.8029130     23  1.100                                             
     1     -4.0817478     23  1.100                                             
  local pseudopotential read in
  atomic valenz-charges read in
  non local Contribution for L=           0  read in
    real space projection operators read in
  non local Contribution for L=           0  read in
    real space projection operators read in
  non local Contribution for L=           1  read in
    real space projection operators read in
    PAW grid and wavefunctions read in
 
   number of l-projection  operators is LMAX  =           3
   number of lm-projection operators is LMMAX =           5
 
 POTCAR:    PAW_PBE C 08Apr2002                   
   VRHFIN =C: s2p2                                                              
   LEXCH  = PE                                                                  
   EATOM  =   147.1560 eV,   10.8157 Ry                                         
                                                                                
   TITEL  = PAW_PBE C 08Apr2002                                                 
   LULTRA =        F    use ultrasoft PP ?                                      
   IUNSCR =        1    unscreen: 0-lin 1-nonlin 2-no                           
   RPACOR =    1.200    partial core radius                                     
   POMASS =   12.011; ZVAL   =    4.000    mass and valenz                      
   RCORE  =    1.500    outmost cutoff radius                                   
   RWIGS  =    1.630; RWIGS  =    0.863    wigner-seitz radius (au A)           
   ENMAX  =  400.000; ENMIN  =  300.000 eV                                      
   ICORE  =        2    local potential                                         
   LCOR   =        T    correct aug charges                                     
   LPAW   =        T    paw PP                                                  
   EAUG   =  644.873                                                            
   DEXC   =    0.000                                                            
   RMAX   =    1.529    core radius for proj-oper                               
   RAUG   =    1.300    factor for augmentation sphere                          
   RDEP   =    1.501    radius for radial grids                                 
   RDEPT  =    1.300    core radius for aug-charge                              
                                                                                
   Atomic configuration                                                         
    4 entries                                                                   
     n  l   j            E        occ.                                          
     1  0  0.50      -273.3789   2.0000                                         
     2  0  0.50       -13.7508   2.0000                                         
     2  1  0.50        -5.2854   2.0000                                         
     3  2  1.50        -5.4423   0.0000                                         
   Description                                                                  
     l       E           TYP  RCUT    TYP  RCUT                                 
     0    -13.7508458     23  1.200                                             
     0     -8.2022199     23  1.200                                             
     1     -5.2854383     23  1.500                                             
     1     34.0145650     23  1.500                                             
     2     -5.4423304      7  1.500                                             
  local pseudopotential read in
  partial core-charges read in
  partial kinetic energy density read in
  atomic valenz-charges read in
  non local Contribution for L=           0  read in
    real space projection operators read in
  non local Contribution for L=           0  read in
    real space projection operators read in
  non local Contribution for L=           1  read in
    real space projection operators read in
  non local Contribution for L=           1  read in
    real space projection operators read in
    PAW grid and wavefunctions read in
 
   number of l-projection  operators is LMAX  =           4
   number of lm-projection operators is LMMAX =           8
 
  PAW_PBE H 15Jun2001                   :
 energy of atom  1       EATOM=  -12.4884
 kinetic energy error for atom=    0.0098 (will be added to EATOM!!)
  PAW_PBE C 08Apr2002                   :
 energy of atom  2       EATOM= -147.1560
 kinetic energy error for atom=    0.0288 (will be added to EATOM!!)
 
 
 POSCAR:  H  C                                   
  positions in cartesian coordinates
  No initial velocities read in
 exchange correlation table for  LEXCH =        8
   RHO(1)=    0.500       N(1)  =     2000
   RHO(2)=  100.500       N(2)  =     4000

 VTST: version 3.2, (02/03/18)

 CHAIN: initializing optimizer
 
 OPT: Using VASP Dynamics algorithm
 CHAIN: Read ICHAIN            0
 
 POSCAR:  H  C                                   
  positions in cartesian coordinates
  No initial velocities read in
 


--------------------------------------------------------------------------------------------------------


 ion  position               nearest neighbor table
   1  0.538  0.407  0.360-   5 1.12
   2  0.395  0.481  0.438-   5 1.13
   3  0.552  0.565  0.443-   5 1.12
   4  0.528  0.417  0.539-   5 1.10
   5  0.503  0.467  0.445-   4 1.10   3 1.12   1 1.12   2 1.13
 

IMPORTANT INFORMATION: All symmetrisations will be switched off!
NOSYMM: (Re-)initialisation of all symmetry stuff for point group C_1.

 
 

Automatic generation of k-mesh.
 generate k-points for:    2    2    2
Space group operators:
 irot       det(A)        alpha          n_x          n_y          n_z        tau_x        tau_y        tau_z
    1     1.000000     0.000000     1.000000     0.000000     0.000000     0.000000     0.000000     0.000000
 
 Subroutine IBZKPT returns following result:
 ===========================================
 
 Found      4 irreducible k-points:
 
 Following reciprocal coordinates:
            Coordinates               Weight
  0.250000  0.250000  0.250000      2.000000
 -0.250000  0.250000  0.250000      2.000000
  0.250000 -0.250000  0.250000      2.000000
 -0.250000 -0.250000  0.250000      2.000000
 
 Following cartesian coordinates:
            Coordinates               Weight
  0.024352  0.024538  0.023634      2.000000
 -0.024352  0.024298  0.024846      2.000000
  0.024352 -0.024298  0.024889      2.000000
 -0.024352 -0.024538  0.026102      2.000000
 


--------------------------------------------------------------------------------------------------------




 Dimension of arrays:
   k-points           NKPTS =      4   k-points in BZ     NKDIM =      4   number of bands    NBANDS=      8
   number of dos      NEDOS =    301   number of ions     NIONS =      5
   non local maximal  LDIM  =      4   non local SUM 2l+1 LMDIM =      8
   total plane-waves  NPLWV = 343000
   max r-space proj   IRMAX =      1   max aug-charges    IRDMAX=   4030
   dimension x,y,z NGX =    70 NGY =   70 NGZ =   70
   dimension x,y,z NGXF=   140 NGYF=  140 NGZF=  140
   support grid    NGXF=   140 NGYF=  140 NGZF=  140
   ions per type =               4   1
   NGX,Y,Z   is equivalent  to a cutoff of  11.34, 11.37, 11.57 a.u.
   NGXF,Y,Z  is equivalent  to a cutoff of  22.67, 22.73, 23.14 a.u.

 SYSTEM =  unknown system                          
 POSCAR =   H  C                                   

 Startparameter for this run:
   NWRITE =      2    write-flag & timer
   PREC   = a         normal or accurate (medium, high low for compatibility)
   ISTART =      0    job   : 0-new  1-cont  2-samecut
   ICHARG =      2    charge: 1-file 2-atom 10-const
   ISPIN  =      1    spin polarized calculation?
   LNONCOLLINEAR =      F non collinear calculations
   LSORBIT =      F    spin-orbit coupling
   INIWAV =      1    electr: 0-lowe 1-rand  2-diag
   LASPH  =      F    aspherical Exc in radial PAW
   METAGGA=      F    non-selfconsistent MetaGGA calc.

 Electronic Relaxation 1
   ENCUT  =  400.0 eV  29.40 Ry    5.42 a.u.  16.74 16.70 16.40*2*pi/ulx,y,z
   ENINI  =  400.0     initial cutoff
   ENAUG  =  644.9 eV  augmentation charge cutoff
   NELM   =    120;   NELMIN=  4; NELMDL= -5     # of ELM steps 
   EDIFF  = 0.1E-05   stopping-criterion for ELM
   LREAL  =      F    real-space projection
   NLSPLINE    = F    spline interpolate recip. space projectors
   LCOMPAT=      F    compatible to vasp.4.4
   GGA_COMPAT  = T    GGA compatible to vasp.4.4-vasp.4.6
   LMAXPAW     = -100 max onsite density
   LMAXMIX     =    2 max onsite mixed and CHGCAR
   VOSKOWN=      0    Vosko Wilk Nusair interpolation
   ROPT   =    0.00000   0.00000
 Ionic relaxation
   EDIFFG = 0.1E-04   stopping-criterion for IOM
   NSW    =     10    number of steps for IOM
   NBLOCK =      1;   KBLOCK =     10    inner block; outer block 
   IBRION =      0    ionic relax: 0-MD 1-quasi-New 2-CG
   NFREE  =      0    steps in history (QN), initial steepest desc. (CG)
   ISIF   =      2    stress and relaxation
   IWAVPR =     12    prediction:  0-non 1-charg 2-wave 3-comb
   ISYM   =      0    0-nonsym 1-usesym 2-fastsym
   LCORR  =      T    Harris-Foulkes like correction to forces

   POTIM  = 0.5000    time-step for ionic-motion
   TEIN   =    0.0    initial temperature
   TEBEG  =    0.0;   TEEND  =   0.0 temperature during run
   SMASS  =  -3.00    Nose mass-parameter (am)
   estimated Nose-frequenzy (Omega)   =  0.10E-29 period in steps =****** mass=  -0.241E-26a.u.
   SCALEE = 1.0000    scale energy and forces
   NPACO  =    256;   APACO  = 16.0  distance and # of slots for P.C.
   PSTRESS=    0.0 pullay stress

  Mass of Ions in am
   POMASS =   1.00 12.01
  Ionic Valenz
   ZVAL   =   1.00  4.00
  Atomic Wigner-Seitz radii
   RWIGS  =  -1.00 -1.00
  virtual crystal weights 
   VCA    =   1.00  1.00
   NELECT =       8.0000    total number of electrons
   NUPDOWN=      -1.0000    fix difference up-down

 DOS related values:
   EMIN   =  10.00;   EMAX   =-10.00  energy-range for DOS
   EFERMI =   0.00
   ISMEAR =     0;   SIGMA  =   0.20  broadening in eV -4-tet -1-fermi 0-gaus

 Electronic relaxation 2 (details)
   IALGO  =     68    algorithm
   LDIAG  =      T    sub-space diagonalisation (order eigenvalues)
   LSUBROT=      F    optimize rotation matrix (better conditioning)
   TURBO    =      0    0=normal 1=particle mesh
   IRESTART =      0    0=no restart 2=restart with 2 vectors
   NREBOOT  =      0    no. of reboots
   NMIN     =      0    reboot dimension
   EREF     =   0.00    reference energy to select bands
   IMIX   =      4    mixing-type and parameters
     AMIX     =   0.40;   BMIX     =  1.00
     AMIX_MAG =   1.60;   BMIX_MAG =  1.00
     AMIN     =   0.10
     WC   =   100.;   INIMIX=   1;  MIXPRE=   1;  MAXMIX= -45

 Intra band minimization:
   WEIMIN = 0.0010     energy-eigenvalue tresh-hold
   EBREAK =  0.31E-07  absolut break condition
   DEPER  =   0.30     relativ break condition  

   TIME   =   0.40     timestep for ELM

  volume/ion in A,a.u.               =     211.34      1426.16
  Fermi-wavevector in a.u.,A,eV,Ry     =   0.321458  0.607468  1.405962  0.103335
  Thomas-Fermi vector in A             =   1.208971
 
 Write flags
   LWAVE        =      F    write WAVECAR
   LDOWNSAMPLE  =      F    k-point downsampling of WAVECAR
   LCHARG       =      F    write CHGCAR
   LVTOT        =      F    write LOCPOT, total local potential
   LVHAR        =      F    write LOCPOT, Hartree potential only
   LELF         =      F    write electronic localiz. function (ELF)
   LORBIT       =      0    0 simple, 1 ext, 2 COOP (PROOUT), +10 PAW based schemes


 Dipole corrections
   LMONO  =      F    monopole corrections only (constant potential shift)
   LDIPOL =      F    correct potential (dipole corrections)
   IDIPOL =      0    1-x, 2-y, 3-z, 4-all directions 
   EPSILON=  1.0000000 bulk dielectric constant

 Exchange correlation treatment:
   GGA     =    --    GGA type
   LEXCH   =     8    internal setting for exchange type
   VOSKOWN=      0    Vosko Wilk Nusair interpolation
   LHFCALC =     F    Hartree Fock is set to
   LHFONE  =     F    Hartree Fock one center treatment
   AEXX    =    0.0000 exact exchange contribution

 Linear response parameters
   LEPSILON=     F    determine dielectric tensor
   LRPA    =     F    only Hartree local field effects (RPA)
   LNABLA  =     F    use nabla operator in PAW spheres
   LVEL    =     F    velocity operator in full k-point grid
   LINTERFAST=   F  fast interpolation
   KINTER  =     0    interpolate to denser k-point grid
   CSHIFT  =0.1000    complex shift for real part using Kramers Kronig
   OMEGAMAX=  -1.0    maximum frequency
   DEG_THRESHOLD= 0.2000000E-02 threshold for treating states as degnerate
   RTIME   =   -0.100 relaxation time in fs
  (WPLASMAI=    0.000 imaginary part of plasma frequency in eV, 0.658/RTIME)
   DFIELD  = 0.0000000 0.0000000 0.0000000 field for delta impulse in time
 
 Orbital magnetization related:
   ORBITALMAG=     F  switch on orbital magnetization
   LCHIMAG   =     F  perturbation theory with respect to B field
   DQ        =  0.001000  dq finite difference perturbation B field
   LLRAUG    =     F  two centre corrections for induced B field



--------------------------------------------------------------------------------------------------------


 molecular dynamics for ions
   using a microcanonical ensemble
 charge density and potential will be updated during run
 non-spin polarized calculation
 RMM-DIIS sequential band-by-band and
  variant of blocked Davidson during initial phase
 perform sub-space diagonalisation
    before iterative eigenvector-optimisation
 modified Broyden-mixing scheme, WC =      100.0
 initial mixing is a Kerker type mixing with AMIX =  0.4000 and BMIX =      1.0000
 Hartree-type preconditioning will be used
 using additional bands            4
 reciprocal scheme for non local part
 use partial core corrections
 calculate Harris-corrections to forces 
   (improved forces if not selfconsistent)
 use gradient corrections 
 use of overlap-Matrix (Vanderbilt PP)
 Gauss-broadening in eV      SIGMA  =   0.20


--------------------------------------------------------------------------------------------------------


  energy-cutoff  :      400.00
  volume of cell :     1056.68
      direct lattice vectors                 reciprocal lattice vectors
    10.266149064  0.000000000  0.000000000     0.097407508  0.000480428 -0.002424041
    -0.050497009 10.238342752  0.000000000     0.000000000  0.097672057 -0.002511180
     0.248904764  0.258471053 10.053199959     0.000000000  0.000000000  0.099470816

  length of vectors
    10.266149064 10.238467281 10.059601895     0.097438850  0.097704334  0.099470816


 
 k-points in units of 2pi/SCALE and weight: read from INCAR                         
   0.02435188  0.02453812  0.02363390       0.250
  -0.02435188  0.02429791  0.02484592       0.250
   0.02435188 -0.02429791  0.02488949       0.250
  -0.02435188 -0.02453812  0.02610151       0.250
 
 k-points in reciprocal lattice and weights: read from INCAR                         
   0.25000000  0.25000000  0.25000000       0.250
  -0.25000000  0.25000000  0.25000000       0.250
   0.25000000 -0.25000000  0.25000000       0.250
  -0.25000000 -0.25000000  0.25000000       0.250
 
 position of ions in fractional coordinates (direct lattice) 
   0.53832608  0.40663674  0.36049066
   0.39460445  0.48053815  0.43839062
   0.55201433  0.56484504  0.44306030
   0.52831715  0.41695407  0.53916804
   0.50312362  0.46679840  0.44542759
 
 position of ions in cartesian coordinates  (Angst):
   5.59572964  4.25646273  3.62408465
   4.13591987  5.03322553  4.40722852
   5.74881823  5.89759535  4.45417384
   5.53692913  4.40827797  5.42036415
   5.25243917  4.89437219  4.47797264
 


--------------------------------------------------------------------------------------------------------


 k-point  1 :   0.2500 0.2500 0.2500  plane waves:   19178
 k-point  2 :  -0.2500 0.2500 0.2500  plane waves:   19188
 k-point  3 :   0.2500-0.2500 0.2500  plane waves:   19198
 k-point  4 :  -0.2500-0.2500 0.2500  plane waves:   19201

 maximum and minimum number of plane-waves per node :      4819     4774

 maximum number of plane-waves:     19201
 maximum index in each direction: 
   IXMAX=   16   IYMAX=   16   IZMAX=   16
   IXMIN=  -16   IYMIN=  -16   IZMIN=  -16


 parallel 3D FFT for wavefunctions:
    minimum data exchange during FFTs selected (reduces bandwidth)
 parallel 3D FFT for charge:
    minimum data exchange during FFTs selected (reduces bandwidth)


 total amount of memory used by VASP MPI-rank0    55576. kBytes
=======================================================================

   base      :      30000. kBytes
   nonl-proj :       2848. kBytes
   fftplans  :       8578. kBytes
   grid      :      13527. kBytes
   one-center:          6. kBytes
   wavefun   :        617. kBytes
 
     INWAV:  cpu time    0.0000: real time    0.0000
 Broyden mixing: mesh for mixing (old mesh)
   NGX = 33   NGY = 33   NGZ = 33
  (NGX  =140   NGY  =140   NGZ  =140)
  gives a total of  35937 points

 initial charge density was supplied:
 charge density of overlapping atoms calculated
 number of electron       8.0000000 magnetization 
 keeping initial charge density in first step


--------------------------------------------------------------------------------------------------------


 Maximum index for augmentation-charges          158 (set IRDMAX)


--------------------------------------------------------------------------------------------------------


 First call to EWALD:  gamma=   0.174
 Maximum number of real-space cells 3x 3x 3
 Maximum number of reciprocal cells 3x 3x 3

    FEWALD:  cpu time    0.0015: real time    0.0015


--------------------------------------- Iteration      1(   1)  ---------------------------------------


    POTLOK:  cpu time    0.1375: real time    0.1461
    SETDIJ:  cpu time    0.0032: real time    0.0037
     EDDAV:  cpu time    0.1924: real time    0.2114
       DOS:  cpu time    0.0007: real time    0.0011
    --------------------------------------------
      LOOP:  cpu time    0.3339: real time    0.3624

 eigenvalue-minimisations  :    96
 total energy-change (2. order) : 0.1448418E+02  (-0.2011072E+03)
 number of electron       8.0000000 magnetization 
 augmentation part        8.0000000 magnetization 

 Free energy of the ion-electron system (eV)
  ---------------------------------------------------
  alpha Z        PSCENC =         0.22925755
  Ewald energy   TEWEN  =       126.64073203
  -Hartree energ DENC   =      -243.91672802
  -exchange      EXHF   =         0.00000000
  -V(xc)+E(xc)   XCENC  =        21.90363133
  PAW double counting   =       117.05815612     -117.66307307
  entropy T*S    EENTRO =        -0.00014397
  eigenvalues    EBANDS =       -86.80941001
  atomic energy  EATOM  =       197.04175453
  Solvation  Ediel_sol  =         0.00000000
  ---------------------------------------------------
  free energy    TOTEN  =        14.48417651 eV

  energy without entropy =       14.48432047  energy(sigma->0) =       14.48424849


--------------------------------------------------------------------------------------------------------




--------------------------------------- Iteration      1(   2)  ---------------------------------------


     EDDAV:  cpu time    0.1544: real time    0.1558
       DOS:  cpu time    0.0003: real time    0.0003
    --------------------------------------------
      LOOP:  cpu time    0.1547: real time    0.1561

 eigenvalue-minimisations  :    72
 total energy-change (2. order) :-0.3724761E+02  (-0.3724638E+02)
 number of electron       8.0000000 magnetization 
 augmentation part        8.0000000 magnetization 

 Free energy of the ion-electron system (eV)
  ---------------------------------------------------
  alpha Z        PSCENC =         0.22925755
  Ewald energy   TEWEN  =       126.64073203
  -Hartree energ DENC   =      -243.91672802
  -exchange      EXHF   =         0.00000000
  -V(xc)+E(xc)   XCENC  =        21.90363133
  PAW double counting   =       117.05815612     -117.66307307
  entropy T*S    EENTRO =        -0.00000000
  eigenvalues    EBANDS =      -124.05715921
  atomic energy  EATOM  =       197.04175453
  Solvation  Ediel_sol  =         0.00000000
  ---------------------------------------------------
  free energy    TOTEN  =       -22.76342872 eV

  energy without entropy =      -22.76342872  energy(sigma->0) =      -22.76342872


--------------------------------------------------------------------------------------------------------




--------------------------------------- Iteration      1(   3)  ---------------------------------------


     EDDAV:  cpu time    0.1424: real time    0.1424
       DOS:  cpu time    0.0002: real time    0.0002
    --------------------------------------------
      LOOP:  cpu time    0.1426: real time    0.1426

 eigenvalue-minimisations  :    64
 total energy-change (2. order) :-0.4299538E+01  (-0.4299538E+01)
 number of electron       8.0000000 magnetization 
 augmentation part        8.0000000 magnetization 

 Free energy of the ion-electron system (eV)
  ---------------------------------------------------
  alpha Z        PSCENC =         0.22925755
  Ewald energy   TEWEN  =       126.64073203
  -Hartree energ DENC   =      -243.91672802
  -exchange      EXHF   =         0.00000000
  -V(xc)+E(xc)   XCENC  =        21.90363133
  PAW double counting   =       117.05815612     -117.66307307
  entropy T*S    EENTRO =        -0.00000000
  eigenvalues    EBANDS =      -128.35669703
  atomic energy  EATOM  =       197.04175453
  Solvation  Ediel_sol  =         0.00000000
  ---------------------------------------------------
  free energy    TOTEN  =       -27.06296655 eV

  energy without entropy =      -27.06296655  energy(sigma->0) =      -27.06296655


--------------------------------------------------------------------------------------------------------




--------------------------------------- Iteration      1(   4)  ---------------------------------------


     EDDAV:  cpu time    0.2368: real time    0.2391
       DOS:  cpu time    0.0002: real time    0.0002
    --------------------------------------------
      LOOP:  cpu time    0.2370: real time    0.2393

 eigenvalue-minimisations  :   128
 total energy-change (2. order) :-0.1998401E+00  (-0.1998401E+00)
 number of electron       8.0000000 magnetization 
 augmentation part        8.0000000 magnetization 

 Free energy of the ion-electron system (eV)
  ---------------------------------------------------
  alpha Z        PSCENC =         0.22925755
  Ewald energy   TEWEN  =       126.64073203
  -Hartree energ DENC   =      -243.91672802
  -exchange      EXHF   =         0.00000000
  -V(xc)+E(xc)   XCENC  =        21.90363133
  PAW double counting   =       117.05815612     -117.66307307
  entropy T*S    EENTRO =        -0.00000000
  eigenvalues    EBANDS =      -128.55653714
  atomic energy  EATOM  =       197.04175453
  Solvation  Ediel_sol  =         0.00000000
  ---------------------------------------------------
  free energy    TOTEN  =       -27.26280666 eV

  energy without entropy =      -27.26280666  energy(sigma->0) =      -27.26280666


--------------------------------------------------------------------------------------------------------




--------------------------------------- Iteration      1(   5)  ---------------------------------------


     EDDAV:  cpu time    0.1884: real time    0.1892
       DOS:  cpu time    0.0002: real time    0.0002
    CHARGE:  cpu time    0.0198: real time    0.0198
    MIXING:  cpu time    0.0040: real time    0.0040
    --------------------------------------------
      LOOP:  cpu time    0.2124: real time    0.2132

 eigenvalue-minimisations  :    96
 total energy-change (2. order) :-0.8838305E-04  (-0.8838308E-04)
 number of electron       8.0000001 magnetization 
 augmentation part        0.2183326 magnetization 

 Broyden mixing:
  rms(total) = 0.83731E+00    rms(broyden)= 0.83709E+00
  rms(prec ) = 0.11834E+01
  weight for this iteration     100.00

 Free energy of the ion-electron system (eV)
  ---------------------------------------------------
  alpha Z        PSCENC =         0.22925755
  Ewald energy   TEWEN  =       126.64073203
  -Hartree energ DENC   =      -243.91672802
  -exchange      EXHF   =         0.00000000
  -V(xc)+E(xc)   XCENC  =        21.90363133
  PAW double counting   =       117.05815612     -117.66307307
  entropy T*S    EENTRO =        -0.00000000
  eigenvalues    EBANDS =      -128.55662552
  atomic energy  EATOM  =       197.04175453
  Solvation  Ediel_sol  =         0.00000000
  ---------------------------------------------------
  free energy    TOTEN  =       -27.26289504 eV

  energy without entropy =      -27.26289504  energy(sigma->0) =      -27.26289504


--------------------------------------------------------------------------------------------------------




--------------------------------------- Iteration      1(   6)  ---------------------------------------


    POTLOK:  cpu time    0.1327: real time    0.1327
    SETDIJ:  cpu time    0.0015: real time    0.0015
    EDDIAG:  cpu time    0.0383: real time    0.0470
  RMM-DIIS:  cpu time    0.1446: real time    0.1446
    ORTHCH:  cpu time    0.0016: real time    0.0016
       DOS:  cpu time    0.0002: real time    0.0002
    CHARGE:  cpu time    0.0184: real time    0.0184
    MIXING:  cpu time    0.0045: real time    0.0060
    --------------------------------------------
      LOOP:  cpu time    0.3418: real time    0.3519

 eigenvalue-minimisations  :    64
 total energy-change (2. order) : 0.2676259E+01  (-0.4929129E+00)
 number of electron       8.0000000 magnetization 
 augmentation part        0.1925042 magnetization 

 Broyden mixing:
  rms(total) = 0.41468E+00    rms(broyden)= 0.41458E+00
  rms(prec ) = 0.53532E+00
  weight for this iteration     100.00

 eigenvalues of (default mixing * dielectric matrix)
  average eigenvalue GAMMA=   1.2913
  1.2913

 Free energy of the ion-electron system (eV)
  ---------------------------------------------------
  alpha Z        PSCENC =         0.22925755
  Ewald energy   TEWEN  =       126.64073203
  -Hartree energ DENC   =      -262.89034008
  -exchange      EXHF   =         0.00000000
  -V(xc)+E(xc)   XCENC  =        23.05588341
  PAW double counting   =       232.10291842     -232.87230912
  entropy T*S    EENTRO =        -0.00000000
  eigenvalues    EBANDS =      -107.89453298
  atomic energy  EATOM  =       197.04175453
  Solvation  Ediel_sol  =         0.00000000
  ---------------------------------------------------
  free energy    TOTEN  =       -24.58663623 eV

  energy without entropy =      -24.58663623  energy(sigma->0) =      -24.58663623


--------------------------------------------------------------------------------------------------------




--------------------------------------- Iteration      1(   7)  ---------------------------------------


    POTLOK:  cpu time    0.1331: real time    0.1331
    SETDIJ:  cpu time    0.0015: real time    0.0015
    EDDIAG:  cpu time    0.0346: real time    0.0346
  RMM-DIIS:  cpu time    0.1426: real time    0.1426
    ORTHCH:  cpu time    0.0014: real time    0.0014
       DOS:  cpu time    0.0002: real time    0.0002
    CHARGE:  cpu time    0.0172: real time    0.0172
    MIXING:  cpu time    0.0043: real time    0.0043
    --------------------------------------------
      LOOP:  cpu time    0.3348: real time    0.3348

 eigenvalue-minimisations  :    64
 total energy-change (2. order) : 0.4522319E+00  (-0.1041073E+00)
 number of electron       8.0000000 magnetization 
 augmentation part        0.1827725 magnetization 

 Broyden mixing:
  rms(total) = 0.22231E+00    rms(broyden)= 0.22225E+00
  rms(prec ) = 0.26909E+00
  weight for this iteration     100.00

 eigenvalues of (default mixing * dielectric matrix)
  average eigenvalue GAMMA=   1.8374
  1.4355  2.2393

 Free energy of the ion-electron system (eV)
  ---------------------------------------------------
  alpha Z        PSCENC =         0.22925755
  Ewald energy   TEWEN  =       126.64073203
  -Hartree energ DENC   =      -273.83902525
  -exchange      EXHF   =         0.00000000
  -V(xc)+E(xc)   XCENC  =        23.86640019
  PAW double counting   =       347.99762610     -348.80057103
  entropy T*S    EENTRO =        -0.00000000
  eigenvalues    EBANDS =       -97.27057846
  atomic energy  EATOM  =       197.04175453
  Solvation  Ediel_sol  =         0.00000000
  ---------------------------------------------------
  free energy    TOTEN  =       -24.13440434 eV

  energy without entropy =      -24.13440434  energy(sigma->0) =      -24.13440434


--------------------------------------------------------------------------------------------------------




--------------------------------------- Iteration      1(   8)  ---------------------------------------


    POTLOK:  cpu time    0.1325: real time    0.1325
    SETDIJ:  cpu time    0.0014: real time    0.0014
    EDDIAG:  cpu time    0.0341: real time    0.0342
  RMM-DIIS:  cpu time    0.1450: real time    0.1450
    ORTHCH:  cpu time    0.0018: real time    0.0018
       DOS:  cpu time    0.0002: real time    0.0002
    CHARGE:  cpu time    0.0172: real time    0.0172
    MIXING:  cpu time    0.0042: real time    0.0042
    --------------------------------------------
      LOOP:  cpu time    0.3364: real time    0.3364

 eigenvalue-minimisations  :    64
 total energy-change (2. order) : 0.1428035E+00  (-0.1626945E-01)
 number of electron       8.0000000 magnetization 
 augmentation part        0.1814475 magnetization 

 Broyden mixing:
  rms(total) = 0.23094E-01    rms(broyden)= 0.23071E-01
  rms(prec ) = 0.51912E-01
  weight for this iteration     100.00

 eigenvalues of (default mixing * dielectric matrix)
  average eigenvalue GAMMA=   1.5352
  2.2484  0.9727  1.3845

 Free energy of the ion-electron system (eV)
  ---------------------------------------------------
  alpha Z        PSCENC =         0.22925755
  Ewald energy   TEWEN  =       126.64073203
  -Hartree energ DENC   =      -279.20628252
  -exchange      EXHF   =         0.00000000
  -V(xc)+E(xc)   XCENC  =        24.39912416
  PAW double counting   =       449.10887212     -449.88063040
  entropy T*S    EENTRO =        -0.00000000
  eigenvalues    EBANDS =       -92.32442826
  atomic energy  EATOM  =       197.04175453
  Solvation  Ediel_sol  =         0.00000000
  ---------------------------------------------------
  free energy    TOTEN  =       -23.99160080 eV

  energy without entropy =      -23.99160080  energy(sigma->0) =      -23.99160080


--------------------------------------------------------------------------------------------------------




--------------------------------------- Iteration      1(   9)  ---------------------------------------


    POTLOK:  cpu time    0.1324: real time    0.1325
    SETDIJ:  cpu time    0.0014: real time    0.0014
    EDDIAG:  cpu time    0.0344: real time    0.0344
  RMM-DIIS:  cpu time    0.1448: real time    0.1448
    ORTHCH:  cpu time    0.0014: real time    0.0014
       DOS:  cpu time    0.0002: real time    0.0002
    CHARGE:  cpu time    0.0171: real time    0.0171
    MIXING:  cpu time    0.0046: real time    0.0055
    --------------------------------------------
      LOOP:  cpu time    0.3363: real time    0.3373

 eigenvalue-minimisations  :    64
 total energy-change (2. order) : 0.5526663E-02  (-0.1070476E-02)
 number of electron       8.0000000 magnetization 
 augmentation part        0.1809088 magnetization 

 Broyden mixing:
  rms(total) = 0.19130E-01    rms(broyden)= 0.19127E-01
  rms(prec ) = 0.39530E-01
  weight for this iteration     100.00

 eigenvalues of (default mixing * dielectric matrix)
  average eigenvalue GAMMA=   2.0782
  1.0028  1.3529  2.9786  2.9786

 Free energy of the ion-electron system (eV)
  ---------------------------------------------------
  alpha Z        PSCENC =         0.22925755
  Ewald energy   TEWEN  =       126.64073203
  -Hartree energ DENC   =      -280.42288067
  -exchange      EXHF   =         0.00000000
  -V(xc)+E(xc)   XCENC  =        24.46475988
  PAW double counting   =       451.37437298     -452.14900597
  entropy T*S    EENTRO =        -0.00000000
  eigenvalues    EBANDS =       -91.16506448
  atomic energy  EATOM  =       197.04175453
  Solvation  Ediel_sol  =         0.00000000
  ---------------------------------------------------
  free energy    TOTEN  =       -23.98607414 eV

  energy without entropy =      -23.98607414  energy(sigma->0) =      -23.98607414


--------------------------------------------------------------------------------------------------------




--------------------------------------- Iteration      1(  10)  ---------------------------------------


    POTLOK:  cpu time    0.1279: real time    0.1279
    SETDIJ:  cpu time    0.0015: real time    0.0015
    EDDIAG:  cpu time    0.0339: real time    0.0339
  RMM-DIIS:  cpu time    0.1439: real time    0.1439
    ORTHCH:  cpu time    0.0014: real time    0.0014
       DOS:  cpu time    0.0002: real time    0.0002
    CHARGE:  cpu time    0.0171: real time    0.0171
    MIXING:  cpu time    0.0047: real time    0.0047
    --------------------------------------------
      LOOP:  cpu time    0.3305: real time    0.3305

 eigenvalue-minimisations  :    64
 total energy-change (2. order) : 0.6501067E-02  (-0.2524540E-02)
 number of electron       8.0000000 magnetization 
 augmentation part        0.1798680 magnetization 

 Broyden mixing:
  rms(total) = 0.27326E-01    rms(broyden)= 0.27324E-01
  rms(prec ) = 0.35081E-01
  weight for this iteration     100.00

 eigenvalues of (default mixing * dielectric matrix)
  average eigenvalue GAMMA=   1.7889
  3.0798  2.3951  0.9859  1.2419  1.2419

 Free energy of the ion-electron system (eV)
  ---------------------------------------------------
  alpha Z        PSCENC =         0.22925755
  Ewald energy   TEWEN  =       126.64073203
  -Hartree energ DENC   =      -282.59870106
  -exchange      EXHF   =         0.00000000
  -V(xc)+E(xc)   XCENC  =        24.53594341
  PAW double counting   =       436.55820922     -437.33630907
  entropy T*S    EENTRO =        -0.00000000
  eigenvalues    EBANDS =       -89.05045969
  atomic energy  EATOM  =       197.04175453
  Solvation  Ediel_sol  =         0.00000000
  ---------------------------------------------------
  free energy    TOTEN  =       -23.97957307 eV

  energy without entropy =      -23.97957307  energy(sigma->0) =      -23.97957307


--------------------------------------------------------------------------------------------------------




--------------------------------------- Iteration      1(  11)  ---------------------------------------


    POTLOK:  cpu time    0.1280: real time    0.1280
    SETDIJ:  cpu time    0.0014: real time    0.0014
    EDDIAG:  cpu time    0.0339: real time    0.0339
  RMM-DIIS:  cpu time    0.1423: real time    0.1423
    ORTHCH:  cpu time    0.0014: real time    0.0014
       DOS:  cpu time    0.0002: real time    0.0002
    CHARGE:  cpu time    0.0171: real time    0.0171
    MIXING:  cpu time    0.0045: real time    0.0045
    --------------------------------------------
      LOOP:  cpu time    0.3288: real time    0.3288

 eigenvalue-minimisations  :    64
 total energy-change (2. order) :-0.8525240E-03  (-0.9586191E-03)
 number of electron       8.0000000 magnetization 
 augmentation part        0.1802761 magnetization 

 Broyden mixing:
  rms(total) = 0.97758E-02    rms(broyden)= 0.97722E-02
  rms(prec ) = 0.15322E-01
  weight for this iteration     100.00

 eigenvalues of (default mixing * dielectric matrix)
  average eigenvalue GAMMA=   2.2851
  4.9090  3.0863  2.4226  1.2402  1.0261  1.0261

 Free energy of the ion-electron system (eV)
  ---------------------------------------------------
  alpha Z        PSCENC =         0.22925755
  Ewald energy   TEWEN  =       126.64073203
  -Hartree energ DENC   =      -282.47870147
  -exchange      EXHF   =         0.00000000
  -V(xc)+E(xc)   XCENC  =        24.54982607
  PAW double counting   =       445.22498020     -445.99517865
  entropy T*S    EENTRO =        -0.00000000
  eigenvalues    EBANDS =       -89.19309585
  atomic energy  EATOM  =       197.04175453
  Solvation  Ediel_sol  =         0.00000000
  ---------------------------------------------------
  free energy    TOTEN  =       -23.98042559 eV

  energy without entropy =      -23.98042559  energy(sigma->0) =      -23.98042559


--------------------------------------------------------------------------------------------------------




--------------------------------------- Iteration      1(  12)  ---------------------------------------


    POTLOK:  cpu time    0.1210: real time    0.1210
    SETDIJ:  cpu time    0.0015: real time    0.0015
    EDDIAG:  cpu time    0.0336: real time    0.0336
  RMM-DIIS:  cpu time    0.1450: real time    0.1450
    ORTHCH:  cpu time    0.0014: real time    0.0014
       DOS:  cpu time    0.0002: real time    0.0002
    CHARGE:  cpu time    0.0169: real time    0.0170
    MIXING:  cpu time    0.0049: real time    0.0049
    --------------------------------------------
      LOOP:  cpu time    0.3246: real time    0.3246

 eigenvalue-minimisations  :    64
 total energy-change (2. order) :-0.9157830E-02  (-0.2898565E-03)
 number of electron       8.0000000 magnetization 
 augmentation part        0.1804555 magnetization 

 Broyden mixing:
  rms(total) = 0.11901E-01    rms(broyden)= 0.11900E-01
  rms(prec ) = 0.15655E-01
  weight for this iteration     100.00

 eigenvalues of (default mixing * dielectric matrix)
  average eigenvalue GAMMA=   2.0194
  4.8414  2.9523  2.4196  1.1847  1.0260  1.0260  0.6857

 Free energy of the ion-electron system (eV)
  ---------------------------------------------------
  alpha Z        PSCENC =         0.22925755
  Ewald energy   TEWEN  =       126.64073203
  -Hartree energ DENC   =      -282.70215491
  -exchange      EXHF   =         0.00000000
  -V(xc)+E(xc)   XCENC  =        24.54131535
  PAW double counting   =       441.93453833     -442.70426349
  entropy T*S    EENTRO =        -0.00000000
  eigenvalues    EBANDS =       -88.97076281
  atomic energy  EATOM  =       197.04175453
  Solvation  Ediel_sol  =         0.00000000
  ---------------------------------------------------
  free energy    TOTEN  =       -23.98958342 eV

  energy without entropy =      -23.98958342  energy(sigma->0) =      -23.98958342


--------------------------------------------------------------------------------------------------------




--------------------------------------- Iteration      1(  13)  ---------------------------------------


    POTLOK:  cpu time    0.1210: real time    0.1211
    SETDIJ:  cpu time    0.0015: real time    0.0015
    EDDIAG:  cpu time    0.0336: real time    0.0336
  RMM-DIIS:  cpu time    0.1438: real time    0.1438
    ORTHCH:  cpu time    0.0015: real time    0.0015
       DOS:  cpu time    0.0002: real time    0.0002
    CHARGE:  cpu time    0.0170: real time    0.0170
    MIXING:  cpu time    0.0050: real time    0.0050
    --------------------------------------------
      LOOP:  cpu time    0.3237: real time    0.3237

 eigenvalue-minimisations  :    64
 total energy-change (2. order) :-0.5967092E-03  (-0.1114645E-03)
 number of electron       8.0000000 magnetization 
 augmentation part        0.1802006 magnetization 

 Broyden mixing:
  rms(total) = 0.41139E-02    rms(broyden)= 0.41134E-02
  rms(prec ) = 0.58808E-02
  weight for this iteration     100.00

 eigenvalues of (default mixing * dielectric matrix)
  average eigenvalue GAMMA=   2.4583
  6.2122  4.2544  2.4536  2.4536  1.2076  1.2076  0.9927  0.8842

 Free energy of the ion-electron system (eV)
  ---------------------------------------------------
  alpha Z        PSCENC =         0.22925755
  Ewald energy   TEWEN  =       126.64073203
  -Hartree energ DENC   =      -282.88415896
  -exchange      EXHF   =         0.00000000
  -V(xc)+E(xc)   XCENC  =        24.54621378
  PAW double counting   =       441.73903356     -442.51113159
  entropy T*S    EENTRO =        -0.00000000
  eigenvalues    EBANDS =       -88.79188103
  atomic energy  EATOM  =       197.04175453
  Solvation  Ediel_sol  =         0.00000000
  ---------------------------------------------------
  free energy    TOTEN  =       -23.99018013 eV

  energy without entropy =      -23.99018013  energy(sigma->0) =      -23.99018013


--------------------------------------------------------------------------------------------------------




--------------------------------------- Iteration      1(  14)  ---------------------------------------


    POTLOK:  cpu time    0.1189: real time    0.1189
    SETDIJ:  cpu time    0.0015: real time    0.0015
    EDDIAG:  cpu time    0.0337: real time    0.0337
  RMM-DIIS:  cpu time    0.1441: real time    0.1441
    ORTHCH:  cpu time    0.0015: real time    0.0015
       DOS:  cpu time    0.0002: real time    0.0002
    CHARGE:  cpu time    0.0169: real time    0.0169
    MIXING:  cpu time    0.0050: real time    0.0050
    --------------------------------------------
      LOOP:  cpu time    0.3217: real time    0.3218

 eigenvalue-minimisations  :    64
 total energy-change (2. order) :-0.2900601E-02  (-0.1240641E-03)
 number of electron       8.0000000 magnetization 
 augmentation part        0.1800923 magnetization 

 Broyden mixing:
  rms(total) = 0.30173E-02    rms(broyden)= 0.30157E-02
  rms(prec ) = 0.39132E-02
  weight for this iteration     100.00

 eigenvalues of (default mixing * dielectric matrix)
  average eigenvalue GAMMA=   2.3315
  6.5010  4.0847  2.6134  2.3653  1.1697  1.1697  1.1582  0.9607  0.9607

 Free energy of the ion-electron system (eV)
  ---------------------------------------------------
  alpha Z        PSCENC =         0.22925755
  Ewald energy   TEWEN  =       126.64073203
  -Hartree energ DENC   =      -282.87584122
  -exchange      EXHF   =         0.00000000
  -V(xc)+E(xc)   XCENC  =        24.53583705
  PAW double counting   =       441.10712319     -441.88036682
  entropy T*S    EENTRO =        -0.00000000
  eigenvalues    EBANDS =       -88.79157706
  atomic energy  EATOM  =       197.04175453
  Solvation  Ediel_sol  =         0.00000000
  ---------------------------------------------------
  free energy    TOTEN  =       -23.99308073 eV

  energy without entropy =      -23.99308073  energy(sigma->0) =      -23.99308073


--------------------------------------------------------------------------------------------------------




--------------------------------------- Iteration      1(  15)  ---------------------------------------


    POTLOK:  cpu time    0.1191: real time    0.1191
    SETDIJ:  cpu time    0.0014: real time    0.0014
    EDDIAG:  cpu time    0.0335: real time    0.0335
  RMM-DIIS:  cpu time    0.1448: real time    0.1448
    ORTHCH:  cpu time    0.0016: real time    0.0016
       DOS:  cpu time    0.0002: real time    0.0002
    CHARGE:  cpu time    0.0170: real time    0.0170
    MIXING:  cpu time    0.0052: real time    0.0052
    --------------------------------------------
      LOOP:  cpu time    0.3229: real time    0.3229

 eigenvalue-minimisations  :    64
 total energy-change (2. order) :-0.2217382E-03  (-0.4094284E-05)
 number of electron       8.0000000 magnetization 
 augmentation part        0.1800422 magnetization 

 Broyden mixing:
  rms(total) = 0.21627E-02    rms(broyden)= 0.21625E-02
  rms(prec ) = 0.28651E-02
  weight for this iteration     100.00

 eigenvalues of (default mixing * dielectric matrix)
  average eigenvalue GAMMA=   2.5493
  7.6256  4.8472  2.8668  2.6322  2.1674  1.2433  1.2433  0.9892  0.9757  0.9027

 Free energy of the ion-electron system (eV)
  ---------------------------------------------------
  alpha Z        PSCENC =         0.22925755
  Ewald energy   TEWEN  =       126.64073203
  -Hartree energ DENC   =      -282.89259310
  -exchange      EXHF   =         0.00000000
  -V(xc)+E(xc)   XCENC  =        24.53754974
  PAW double counting   =       441.31874445     -442.09158437
  entropy T*S    EENTRO =        -0.00000000
  eigenvalues    EBANDS =       -88.77716331
  atomic energy  EATOM  =       197.04175453
  Solvation  Ediel_sol  =         0.00000000
  ---------------------------------------------------
  free energy    TOTEN  =       -23.99330247 eV

  energy without entropy =      -23.99330247  energy(sigma->0) =      -23.99330247


--------------------------------------------------------------------------------------------------------




--------------------------------------- Iteration      1(  16)  ---------------------------------------


    POTLOK:  cpu time    0.1202: real time    0.1202
    SETDIJ:  cpu time    0.0015: real time    0.0015
    EDDIAG:  cpu time    0.0335: real time    0.0335
  RMM-DIIS:  cpu time    0.1417: real time    0.1418
    ORTHCH:  cpu time    0.0014: real time    0.0014
       DOS:  cpu time    0.0002: real time    0.0002
    CHARGE:  cpu time    0.0171: real time    0.0171
    MIXING:  cpu time    0.0053: real time    0.0053
    --------------------------------------------
      LOOP:  cpu time    0.3210: real time    0.3211

 eigenvalue-minimisations  :    64
 total energy-change (2. order) :-0.2286581E-03  (-0.1795992E-04)
 number of electron       8.0000000 magnetization 
 augmentation part        0.1801151 magnetization 

 Broyden mixing:
  rms(total) = 0.10023E-02    rms(broyden)= 0.10017E-02
  rms(prec ) = 0.13293E-02
  weight for this iteration     100.00

 eigenvalues of (default mixing * dielectric matrix)
  average eigenvalue GAMMA=   2.4982
  7.8720  4.8901  3.3954  2.4473  2.2305  1.2777  1.2777  0.9264  0.9264  1.0391
  1.1973

 Free energy of the ion-electron system (eV)
  ---------------------------------------------------
  alpha Z        PSCENC =         0.22925755
  Ewald energy   TEWEN  =       126.64073203
  -Hartree energ DENC   =      -282.83526712
  -exchange      EXHF   =         0.00000000
  -V(xc)+E(xc)   XCENC  =        24.53564075
  PAW double counting   =       441.35860083     -442.13065963
  entropy T*S    EENTRO =        -0.00000000
  eigenvalues    EBANDS =       -88.83359007
  atomic energy  EATOM  =       197.04175453
  Solvation  Ediel_sol  =         0.00000000
  ---------------------------------------------------
  free energy    TOTEN  =       -23.99353113 eV

  energy without entropy =      -23.99353113  energy(sigma->0) =      -23.99353113


--------------------------------------------------------------------------------------------------------




--------------------------------------- Iteration      1(  17)  ---------------------------------------


    POTLOK:  cpu time    0.1204: real time    0.1204
    SETDIJ:  cpu time    0.0015: real time    0.0015
    EDDIAG:  cpu time    0.0335: real time    0.0335
  RMM-DIIS:  cpu time    0.1425: real time    0.1425
    ORTHCH:  cpu time    0.0015: real time    0.0015
       DOS:  cpu time    0.0002: real time    0.0002
    CHARGE:  cpu time    0.0169: real time    0.0169
    MIXING:  cpu time    0.0055: real time    0.0055
    --------------------------------------------
      LOOP:  cpu time    0.3220: real time    0.3220

 eigenvalue-minimisations  :    64
 total energy-change (2. order) :-0.3125184E-04  (-0.2295377E-05)
 number of electron       8.0000000 magnetization 
 augmentation part        0.1800878 magnetization 

 Broyden mixing:
  rms(total) = 0.16307E-03    rms(broyden)= 0.16304E-03
  rms(prec ) = 0.27074E-03
  weight for this iteration     100.00

 eigenvalues of (default mixing * dielectric matrix)
  average eigenvalue GAMMA=   2.6102
  8.5810  5.3291  3.9227  2.6394  2.4621  1.8422  1.2967  1.2967  1.1026  1.0034
  0.9334  0.9128

 Free energy of the ion-electron system (eV)
  ---------------------------------------------------
  alpha Z        PSCENC =         0.22925755
  Ewald energy   TEWEN  =       126.64073203
  -Hartree energ DENC   =      -282.87708626
  -exchange      EXHF   =         0.00000000
  -V(xc)+E(xc)   XCENC  =        24.53745951
  PAW double counting   =       441.33737321     -442.10978922
  entropy T*S    EENTRO =        -0.00000000
  eigenvalues    EBANDS =       -88.79326373
  atomic energy  EATOM  =       197.04175453
  Solvation  Ediel_sol  =         0.00000000
  ---------------------------------------------------
  free energy    TOTEN  =       -23.99356238 eV

  energy without entropy =      -23.99356238  energy(sigma->0) =      -23.99356238


--------------------------------------------------------------------------------------------------------




--------------------------------------- Iteration      1(  18)  ---------------------------------------


    POTLOK:  cpu time    0.1233: real time    0.1233
    SETDIJ:  cpu time    0.0015: real time    0.0015
    EDDIAG:  cpu time    0.0336: real time    0.0336
  RMM-DIIS:  cpu time    0.1145: real time    0.1145
    ORTHCH:  cpu time    0.0014: real time    0.0014
       DOS:  cpu time    0.0002: real time    0.0002
    CHARGE:  cpu time    0.0171: real time    0.0171
    MIXING:  cpu time    0.0058: real time    0.0058
    --------------------------------------------
      LOOP:  cpu time    0.2973: real time    0.2973

 eigenvalue-minimisations  :    48
 total energy-change (2. order) :-0.1593742E-04  (-0.7807372E-07)
 number of electron       8.0000000 magnetization 
 augmentation part        0.1800865 magnetization 

 Broyden mixing:
  rms(total) = 0.77069E-04    rms(broyden)= 0.77051E-04
  rms(prec ) = 0.11967E-03
  weight for this iteration     100.00

 eigenvalues of (default mixing * dielectric matrix)
  average eigenvalue GAMMA=   2.5973
  8.6561  5.5089  3.8274  3.1107  2.4412  2.2794  1.2764  1.2764  1.3778  0.9022
  0.9908  0.9908  1.1271

 Free energy of the ion-electron system (eV)
  ---------------------------------------------------
  alpha Z        PSCENC =         0.22925755
  Ewald energy   TEWEN  =       126.64073203
  -Hartree energ DENC   =      -282.86801609
  -exchange      EXHF   =         0.00000000
  -V(xc)+E(xc)   XCENC  =        24.53684552
  PAW double counting   =       441.29176165     -442.06413406
  entropy T*S    EENTRO =        -0.00000000
  eigenvalues    EBANDS =       -88.80177946
  atomic energy  EATOM  =       197.04175453
  Solvation  Ediel_sol  =         0.00000000
  ---------------------------------------------------
  free energy    TOTEN  =       -23.99357832 eV

  energy without entropy =      -23.99357832  energy(sigma->0) =      -23.99357832


--------------------------------------------------------------------------------------------------------




--------------------------------------- Iteration      1(  19)  ---------------------------------------


    POTLOK:  cpu time    0.1254: real time    0.1254
    SETDIJ:  cpu time    0.0015: real time    0.0015
    EDDIAG:  cpu time    0.0335: real time    0.0335
  RMM-DIIS:  cpu time    0.1144: real time    0.1145
    ORTHCH:  cpu time    0.0014: real time    0.0014
       DOS:  cpu time    0.0002: real time    0.0002
    CHARGE:  cpu time    0.0172: real time    0.0172
    MIXING:  cpu time    0.0059: real time    0.0059
    --------------------------------------------
      LOOP:  cpu time    0.2994: real time    0.2995

 eigenvalue-minimisations  :    48
 total energy-change (2. order) :-0.3544699E-05  (-0.4887578E-07)
 number of electron       8.0000000 magnetization 
 augmentation part        0.1800892 magnetization 

 Broyden mixing:
  rms(total) = 0.50752E-04    rms(broyden)= 0.50746E-04
  rms(prec ) = 0.74440E-04
  weight for this iteration     100.00

 eigenvalues of (default mixing * dielectric matrix)
  average eigenvalue GAMMA=   2.5945
  8.7161  5.6464  4.0185  3.4225  2.5066  2.5066  2.0552  1.2763  1.2763  1.0462
  0.9162  0.9418  0.9973  0.9973

 Free energy of the ion-electron system (eV)
  ---------------------------------------------------
  alpha Z        PSCENC =         0.22925755
  Ewald energy   TEWEN  =       126.64073203
  -Hartree energ DENC   =      -282.86145433
  -exchange      EXHF   =         0.00000000
  -V(xc)+E(xc)   XCENC  =        24.53642441
  PAW double counting   =       441.26811725     -442.04044522
  entropy T*S    EENTRO =        -0.00000000
  eigenvalues    EBANDS =       -88.80796809
  atomic energy  EATOM  =       197.04175453
  Solvation  Ediel_sol  =         0.00000000
  ---------------------------------------------------
  free energy    TOTEN  =       -23.99358186 eV

  energy without entropy =      -23.99358186  energy(sigma->0) =      -23.99358186


--------------------------------------------------------------------------------------------------------




--------------------------------------- Iteration      1(  20)  ---------------------------------------


    POTLOK:  cpu time    0.1269: real time    0.1269
    SETDIJ:  cpu time    0.0014: real time    0.0014
    EDDIAG:  cpu time    0.0334: real time    0.0334
  RMM-DIIS:  cpu time    0.1122: real time    0.1122
    ORTHCH:  cpu time    0.0014: real time    0.0014
       DOS:  cpu time    0.0002: real time    0.0002
    CHARGE:  cpu time    0.0169: real time    0.0169
    MIXING:  cpu time    0.0063: real time    0.0063
    --------------------------------------------
      LOOP:  cpu time    0.2988: real time    0.2988

 eigenvalue-minimisations  :    44
 total energy-change (2. order) :-0.1411921E-05  (-0.6254985E-08)
 number of electron       8.0000000 magnetization 
 augmentation part        0.1800886 magnetization 

 Broyden mixing:
  rms(total) = 0.16129E-04    rms(broyden)= 0.16128E-04
  rms(prec ) = 0.25026E-04
  weight for this iteration     100.00

 eigenvalues of (default mixing * dielectric matrix)
  average eigenvalue GAMMA=   2.5434
  8.7497  5.6023  4.3610  3.4222  2.5833  2.4206  2.0579  1.4469  1.2644  1.2644
  1.0480  1.0480  1.0316  0.9121  0.9381

 Free energy of the ion-electron system (eV)
  ---------------------------------------------------
  alpha Z        PSCENC =         0.22925755
  Ewald energy   TEWEN  =       126.64073203
  -Hartree energ DENC   =      -282.86351263
  -exchange      EXHF   =         0.00000000
  -V(xc)+E(xc)   XCENC  =        24.53653647
  PAW double counting   =       441.26981580     -442.04215878
  entropy T*S    EENTRO =        -0.00000000
  eigenvalues    EBANDS =       -88.80600824
  atomic energy  EATOM  =       197.04175453
  Solvation  Ediel_sol  =         0.00000000
  ---------------------------------------------------
  free energy    TOTEN  =       -23.99358328 eV

  energy without entropy =      -23.99358328  energy(sigma->0) =      -23.99358328


--------------------------------------------------------------------------------------------------------




--------------------------------------- Iteration      1(  21)  ---------------------------------------


    POTLOK:  cpu time    0.1267: real time    0.1267
    SETDIJ:  cpu time    0.0015: real time    0.0014
    EDDIAG:  cpu time    0.0335: real time    0.0335
  RMM-DIIS:  cpu time    0.0965: real time    0.0965
    ORTHCH:  cpu time    0.0015: real time    0.0015
       DOS:  cpu time    0.0002: real time    0.0002
    --------------------------------------------
      LOOP:  cpu time    0.2598: real time    0.2598

 eigenvalue-minimisations  :    32
 total energy-change (2. order) :-0.2748812E-06  ( 0.0000000E+00)
 number of electron       8.0000000 magnetization 
 augmentation part        0.1800886 magnetization 

 Free energy of the ion-electron system (eV)
  ---------------------------------------------------
  alpha Z        PSCENC =         0.22925755
  Ewald energy   TEWEN  =       126.64073203
  -Hartree energ DENC   =      -282.86479148
  -exchange      EXHF   =         0.00000000
  -V(xc)+E(xc)   XCENC  =        24.53661452
  PAW double counting   =       441.27332318     -442.04567278
  entropy T*S    EENTRO =        -0.00000000
  eigenvalues    EBANDS =       -88.80480110
  atomic energy  EATOM  =       197.04175453
  Solvation  Ediel_sol  =         0.00000000
  ---------------------------------------------------
  free energy    TOTEN  =       -23.99358355 eV

  energy without entropy =      -23.99358355  energy(sigma->0) =      -23.99358355


--------------------------------------------------------------------------------------------------------




 average (electrostatic) potential at core
  the test charge radii are     0.5201  0.6991
  (the norm of the test charge is              1.0000)
       1 -41.3631       2 -41.3167       3 -41.3550       4 -41.5163       5 -58.0861
 
 
 
 E-fermi :  -8.1004     XC(G=0):  -0.6717     alpha+bet : -0.1994


 k-point     1 :       0.2500    0.2500    0.2500
  band No.  band energies     occupation 
      1     -16.7474      2.00000
      2      -9.3305      2.00000
      3      -9.2500      2.00000
      4      -9.0744      2.00000
      5      -0.3505      0.00000
      6       0.5332      0.00000
      7       0.6473      0.00000
      8       0.6895      0.00000

 k-point     2 :      -0.2500    0.2500    0.2500
  band No.  band energies     occupation 
      1     -16.7474      2.00000
      2      -9.3305      2.00000
      3      -9.2500      2.00000
      4      -9.0745      2.00000
      5      -0.3472      0.00000
      6       0.5229      0.00000
      7       0.6404      0.00000
      8       0.6769      0.00000

 k-point     3 :       0.2500   -0.2500    0.2500
  band No.  band energies     occupation 
      1     -16.7474      2.00000
      2      -9.3305      2.00000
      3      -9.2500      2.00000
      4      -9.0745      2.00000
      5      -0.3474      0.00000
      6       0.5244      0.00000
      7       0.6446      0.00000
      8       0.6735      0.00000

 k-point     4 :      -0.2500   -0.2500    0.2500
  band No.  band energies     occupation 
      1     -16.7474      2.00000
      2      -9.3305      2.00000
      3      -9.2501      2.00000
      4      -9.0745      2.00000
      5      -0.3423      0.00000
      6       0.5216      0.00000
      7       0.6279      0.00000
      8       0.6560      0.00000


--------------------------------------------------------------------------------------------------------


 soft charge-density along one line, spin component           1
         0         1         2         3         4         5         6         7         8         9
 total charge-density along one line
 
 pseudopotential strength for first ion, spin component:           1
 -2.340  -4.032  -0.001  -0.001   0.001
 -4.032  -6.861  -0.003  -0.004   0.002
 -0.001  -0.003  -0.338   0.002  -0.001
 -0.001  -0.004   0.002  -0.337  -0.001
  0.001   0.002  -0.001  -0.001  -0.339
 total augmentation occupancy for first ion, spin component:           1
  3.460  -0.625   0.232   0.309  -0.124
 -0.625   0.126  -0.043  -0.058   0.023
  0.232  -0.043   0.021   0.017  -0.007
  0.309  -0.058   0.017   0.031  -0.009
 -0.124   0.023  -0.007  -0.009   0.012


------------------------ aborting loop because EDIFF is reached ----------------------------------------


    CHARGE:  cpu time    0.0167: real time    0.0167
    FORLOC:  cpu time    0.0111: real time    0.0111
    FORNL :  cpu time    0.0179: real time    0.0179
    STRESS:  cpu time    0.1436: real time    0.1439
    FORCOR:  cpu time    0.1262: real time    0.1262
    FORHAR:  cpu time    0.0389: real time    0.0389
    MIXING:  cpu time    0.0063: real time    0.0063
    OFIELD:  cpu time    0.0000: real time    0.0000

  FORCE on cell =-STRESS in cart. coord.  units (eV):
  Direction    XX          YY          ZZ          XY          YZ          ZX
  --------------------------------------------------------------------------------------
  Alpha Z     0.22926     0.22926     0.22926
  Ewald      41.06938    41.93220    43.63911    -0.93357     1.61846     2.99300
  Hartree    93.56631    93.81388    95.48472    -0.26937     0.93938     1.01792
  E(xc)     -26.98532   -26.98657   -26.99513    -0.00400     0.01082     0.01274
  Local    -193.83885  -194.69919  -197.93079     1.02727    -2.50175    -3.49887
  n-local   -15.38687   -15.43633   -15.47918    -0.00004     0.03879    -0.01083
  augment     0.12703     0.12458     0.12272     0.00131     0.00037    -0.00370
  Kinetic    99.59366    99.73271   100.13522     0.20132    -0.54535    -0.59429
  Fock        0.00000     0.00000     0.00000     0.00000     0.00000     0.00000
  -------------------------------------------------------------------------------------
  Total      -1.62540    -1.28946    -0.79407     0.02292    -0.43928    -0.08404
  in kB      -2.46451    -1.95514    -1.20400     0.03475    -0.66606    -0.12742
  external pressure =       -1.87 kB  Pullay stress =        0.00 kB

  kinetic pressure (ideal gas correction) =      0.00 kB
  total pressure  =     -1.87 kB
  Total+kin.    -2.465      -1.955      -1.204       0.035      -0.666      -0.127

 VOLUME and BASIS-vectors are now :
 -----------------------------------------------------------------------------
  energy-cutoff  :      400.00
  volume of cell :     1056.68
      direct lattice vectors                 reciprocal lattice vectors
    10.266149064  0.000000000  0.000000000     0.097407508  0.000480428 -0.002424041
    -0.050497009 10.238342752  0.000000000     0.000000000  0.097672057 -0.002511180
     0.248904764  0.258471053 10.053199959     0.000000000  0.000000000  0.099470816

  length of vectors
    10.266149064 10.238467281 10.059601895     0.097438850  0.097704334  0.099470816


 FORCES acting on ions
    electron-ion (+dipol)            ewald-force                    non-local-force                 convergence-correction
 -----------------------------------------------------------------------------------------------
   -.158E+02 0.294E+02 0.393E+02   0.172E+02 -.318E+02 -.428E+02   -.158E+01 0.297E+01 0.395E+01   0.220E-05 0.336E-05 0.146E-04
   0.507E+02 -.629E+01 0.323E+01   -.548E+02 0.677E+01 -.342E+01   0.503E+01 -.636E+00 0.341E+00   0.249E-05 -.113E-05 0.470E-05
   -.228E+02 -.462E+02 0.116E+01   0.248E+02 0.503E+02 -.140E+01   -.230E+01 -.465E+01 0.756E-01   -.410E-06 -.822E-05 0.126E-05
   -.135E+02 0.233E+02 -.450E+02   0.148E+02 -.258E+02 0.498E+02   -.146E+01 0.242E+01 -.471E+01   -.160E-05 0.379E-05 -.159E-04
   0.174E+01 -.442E+00 0.185E+01   -.197E+01 0.580E+00 -.217E+01   -.241E-01 0.181E+00 -.160E+00   0.202E-04 -.148E-05 0.212E-04
 -----------------------------------------------------------------------------------------------
   0.326E+00 -.290E+00 0.512E+00   -.355E-14 0.000E+00 0.000E+00   -.326E+00 0.290E+00 -.512E+00   0.228E-04 -.368E-05 0.259E-04
 
 
 POSITION                                       TOTAL-FORCE (eV/Angst)
 -----------------------------------------------------------------------------------
      5.59573      4.25646      3.62408        -0.167483      0.494546      0.484843
      4.13592      5.03323      4.40723         0.903290     -0.153470      0.153770
      5.74882      5.89760      4.45417        -0.296264     -0.610645     -0.157775
      5.53693      4.40828      5.42036        -0.181373     -0.050500     -0.003980
      5.25244      4.89437      4.47797        -0.258364      0.319920     -0.476753
 -----------------------------------------------------------------------------------
    total drift:                               -0.000193     -0.000150      0.000105


--------------------------------------------------------------------------------------------------------



  FREE ENERGIE OF THE ION-ELECTRON SYSTEM (eV)
  ---------------------------------------------------
  free  energy   TOTEN  =       -23.99358355 eV

  energy  without entropy=      -23.99358355  energy(sigma->0) =      -23.99358355
 


--------------------------------------------------------------------------------------------------------


    POTLOK:  cpu time    0.1292: real time    0.1292


--------------------------------------------------------------------------------------------------------


 stress matrix after NEB project (eV)
     -1.62540      0.02292     -0.08404
      0.02292     -1.28946     -0.43928
     -0.08404     -0.43928     -0.79407
  FORCES: max atom, RMS     0.929049    0.676497
  FORCE total and by dimension    1.512693    0.903290
  Stress total and by dimension    2.310044    1.625402
           RANDOM_SEED =         581365295                0                0
           RANDOM_SEED =         581365295               30                0
   IONSTEP:  cpu time    0.0028: real time    0.0061

  ENERGY OF THE ELECTRON-ION-THERMOSTAT SYSTEM (eV)
  ---------------------------------------------------
% ion-electron   TOTEN  =       -23.993584  see above
  kinetic energy EKIN   =         0.000581
  kin. lattice  EKIN_LAT=         0.000000  (temperature    1.12 K)
  nose potential ES     =         0.000000
  nose kinetic   EPS    =         0.000000
  ---------------------------------------------------
  total energy   ETOTAL =       -23.993003 eV

  maximum distance moved by ions :      0.22E-03

    WAVPRE:  cpu time    0.0373: real time    0.0373
    FEWALD:  cpu time    0.0003: real time    0.0003
    ORTHCH:  cpu time    0.0084: real time    0.0084
     LOOP+:  cpu time    6.7234: real time    6.7738


--------------------------------------- Iteration      2(   1)  ---------------------------------------


    POTLOK:  cpu time    0.1295: real time    0.1295
    SETDIJ:  cpu time    0.0015: real time    0.0015
     EDDAV:  cpu time    0.1511: real time    0.1511
       DOS:  cpu time    0.0002: real time    0.0002
    CHARGE:  cpu time    0.0166: real time    0.0166
    MIXING:  cpu time    0.0056: real time    0.0056
    --------------------------------------------
      LOOP:  cpu time    0.3046: real time    0.3047

 eigenvalue-minimisations  :    72
 total energy-change (2. order) :-0.4523653E-02  (-0.5089811E-03)
 number of electron       8.0000000 magnetization 
 augmentation part        0.1805535 magnetization 

 Broyden mixing:
  rms(total) = 0.36328E-02    rms(broyden)= 0.36307E-02
  rms(prec ) = 0.47206E-02
  weight for this iteration     100.00

 Free energy of the ion-electron system (eV)
  ---------------------------------------------------
  alpha Z        PSCENC =         0.22925755
  Ewald energy   TEWEN  =       126.95413233
  -Hartree energ DENC   =      -283.05225143
  -exchange      EXHF   =         0.00000000
  -V(xc)+E(xc)   XCENC  =        24.54605045
  PAW double counting   =       441.27638655     -442.04873647
  entropy T*S    EENTRO =        -0.00000000
  eigenvalues    EBANDS =       -88.94470045
  atomic energy  EATOM  =       197.04175453
  Solvation  Ediel_sol  =         0.00000000
  ---------------------------------------------------
  free energy    TOTEN  =       -23.99810693 eV

  energy without entropy =      -23.99810693  energy(sigma->0) =      -23.99810693


--------------------------------------------------------------------------------------------------------




--------------------------------------- Iteration      2(   2)  ---------------------------------------


    POTLOK:  cpu time    0.1334: real time    0.1334
    SETDIJ:  cpu time    0.0015: real time    0.0015
    EDDIAG:  cpu time    0.0335: real time    0.0335
  RMM-DIIS:  cpu time    0.1437: real time    0.1437
    ORTHCH:  cpu time    0.0015: real time    0.0015
       DOS:  cpu time    0.0002: real time    0.0002
    CHARGE:  cpu time    0.0171: real time    0.0171
    MIXING:  cpu time    0.0040: real time    0.0040
    --------------------------------------------
      LOOP:  cpu time    0.3349: real time    0.3349

 eigenvalue-minimisations  :    64
 total energy-change (2. order) : 0.3492384E-04  (-0.1114551E-04)
 number of electron       8.0000000 magnetization 
 augmentation part        0.1805129 magnetization 

 Broyden mixing:
  rms(total) = 0.17013E-02    rms(broyden)= 0.17009E-02
  rms(prec ) = 0.21118E-02
  weight for this iteration     100.00

 eigenvalues of (default mixing * dielectric matrix)
  average eigenvalue GAMMA=   1.7420
  1.7420

 Free energy of the ion-electron system (eV)
  ---------------------------------------------------
  alpha Z        PSCENC =         0.22925755
  Ewald energy   TEWEN  =       126.95413233
  -Hartree energ DENC   =      -283.11341969
  -exchange      EXHF   =         0.00000000
  -V(xc)+E(xc)   XCENC  =        24.54939359
  PAW double counting   =       442.10576509     -442.87879564
  entropy T*S    EENTRO =        -0.00000000
  eigenvalues    EBANDS =       -88.88615977
  atomic energy  EATOM  =       197.04175453
  Solvation  Ediel_sol  =         0.00000000
  ---------------------------------------------------
  free energy    TOTEN  =       -23.99807201 eV

  energy without entropy =      -23.99807201  energy(sigma->0) =      -23.99807201


--------------------------------------------------------------------------------------------------------




--------------------------------------- Iteration      2(   3)  ---------------------------------------


    POTLOK:  cpu time    0.1323: real time    0.1323
    SETDIJ:  cpu time    0.0014: real time    0.0014
    EDDIAG:  cpu time    0.0335: real time    0.0335
  RMM-DIIS:  cpu time    0.1427: real time    0.1427
    ORTHCH:  cpu time    0.0016: real time    0.0016
       DOS:  cpu time    0.0002: real time    0.0002
    CHARGE:  cpu time    0.0169: real time    0.0169
    MIXING:  cpu time    0.0042: real time    0.0042
    --------------------------------------------
      LOOP:  cpu time    0.3328: real time    0.3328

 eigenvalue-minimisations  :    64
 total energy-change (2. order) : 0.1429077E-05  (-0.7208741E-05)
 number of electron       8.0000000 magnetization 
 augmentation part        0.1804461 magnetization 

 Broyden mixing:
  rms(total) = 0.71125E-03    rms(broyden)= 0.71066E-03
  rms(prec ) = 0.86243E-03
  weight for this iteration     100.00

 eigenvalues of (default mixing * dielectric matrix)
  average eigenvalue GAMMA=   1.1931
  0.7632  1.6230

 Free energy of the ion-electron system (eV)
  ---------------------------------------------------
  alpha Z        PSCENC =         0.22925755
  Ewald energy   TEWEN  =       126.95413233
  -Hartree energ DENC   =      -283.15396610
  -exchange      EXHF   =         0.00000000
  -V(xc)+E(xc)   XCENC  =        24.55163763
  PAW double counting   =       442.77522153     -443.54876335
  entropy T*S    EENTRO =        -0.00000000
  eigenvalues    EBANDS =       -88.84734470
  atomic energy  EATOM  =       197.04175453
  Solvation  Ediel_sol  =         0.00000000
  ---------------------------------------------------
  free energy    TOTEN  =       -23.99807058 eV

  energy without entropy =      -23.99807058  energy(sigma->0) =      -23.99807058


--------------------------------------------------------------------------------------------------------




--------------------------------------- Iteration      2(   4)  ---------------------------------------


    POTLOK:  cpu time    0.1327: real time    0.1327
    SETDIJ:  cpu time    0.0015: real time    0.0015
    EDDIAG:  cpu time    0.0337: real time    0.0337
  RMM-DIIS:  cpu time    0.1141: real time    0.1141
    ORTHCH:  cpu time    0.0014: real time    0.0014
       DOS:  cpu time    0.0002: real time    0.0002
    --------------------------------------------
      LOOP:  cpu time    0.2835: real time    0.2835

 eigenvalue-minimisations  :    48
 total energy-change (2. order) : 0.8401732E-06  (-0.1348633E-06)
 number of electron       8.0000000 magnetization 
 augmentation part        0.1804461 magnetization 

 Free energy of the ion-electron system (eV)
  ---------------------------------------------------
  alpha Z        PSCENC =         0.22925755
  Ewald energy   TEWEN  =       126.95413233
  -Hartree energ DENC   =      -283.14588983
  -exchange      EXHF   =         0.00000000
  -V(xc)+E(xc)   XCENC  =        24.55129565
  PAW double counting   =       442.80890777     -443.58234409
  entropy T*S    EENTRO =        -0.00000000
  eigenvalues    EBANDS =       -88.85518366
  atomic energy  EATOM  =       197.04175453
  Solvation  Ediel_sol  =         0.00000000
  ---------------------------------------------------
  free energy    TOTEN  =       -23.99806974 eV

  energy without entropy =      -23.99806974  energy(sigma->0) =      -23.99806974


--------------------------------------------------------------------------------------------------------




 average (electrostatic) potential at core
  the test charge radii are     0.5201  0.6991
  (the norm of the test charge is              1.0000)
       1 -41.3734       2 -41.3302       3 -41.3651       4 -41.5142       5 -58.0757
 
 
 
 E-fermi :  -8.1131     XC(G=0):  -0.6947     alpha+bet : -0.1994


 k-point     1 :       0.2500    0.2500    0.2500
  band No.  band energies     occupation 
      1     -16.7571      2.00000
      2      -9.3324      2.00000
      3      -9.2555      2.00000
      4      -9.0825      2.00000
      5      -0.3560      0.00000
      6       0.5140      0.00000
      7       0.6338      0.00000
      8       0.6737      0.00000

 k-point     2 :      -0.2500    0.2500    0.2500
  band No.  band energies     occupation 
      1     -16.7571      2.00000
      2      -9.3324      2.00000
      3      -9.2555      2.00000
      4      -9.0826      2.00000
      5      -0.3525      0.00000
      6       0.5035      0.00000
      7       0.6254      0.00000
      8       0.6621      0.00000

 k-point     3 :       0.2500   -0.2500    0.2500
  band No.  band energies     occupation 
      1     -16.7571      2.00000
      2      -9.3324      2.00000
      3      -9.2555      2.00000
      4      -9.0826      2.00000
      5      -0.3527      0.00000
      6       0.5047      0.00000
      7       0.6301      0.00000
      8       0.6584      0.00000

 k-point     4 :      -0.2500   -0.2500    0.2500
  band No.  band energies     occupation 
      1     -16.7571      2.00000
      2      -9.3324      2.00000
      3      -9.2555      2.00000
      4      -9.0826      2.00000
      5      -0.3473      0.00000
      6       0.5005      0.00000
      7       0.6146      0.00000
      8       0.6401      0.00000


--------------------------------------------------------------------------------------------------------


 soft charge-density along one line, spin component           1
         0         1         2         3         4         5         6         7         8         9
 total charge-density along one line
 
 pseudopotential strength for first ion, spin component:           1
 -2.340  -4.032  -0.001  -0.001   0.001
 -4.032  -6.861  -0.003  -0.004   0.002
 -0.001  -0.003  -0.338   0.002  -0.001
 -0.001  -0.004   0.002  -0.337  -0.001
  0.001   0.002  -0.001  -0.001  -0.339
 total augmentation occupancy for first ion, spin component:           1
  3.466  -0.626   0.233   0.310  -0.125
 -0.626   0.127  -0.043  -0.058   0.023
  0.233  -0.043   0.021   0.017  -0.007
  0.310  -0.058   0.017   0.031  -0.009
 -0.125   0.023  -0.007  -0.009   0.012


------------------------ aborting loop because EDIFF is reached ----------------------------------------


    CHARGE:  cpu time    0.0167: real time    0.0167
    FORLOC:  cpu time    0.0111: real time    0.0111
    FORNL :  cpu time    0.0179: real time    0.0179
    STRESS:  cpu time    0.1435: real time    0.1435
    FORCOR:  cpu time    0.1283: real time    0.1283
    FORHAR:  cpu time    0.0416: real time    0.0416
    MIXING:  cpu time    0.0056: real time    0.0057
    OFIELD:  cpu time    0.0000: real time    0.0000

  FORCE on cell =-STRESS in cart. coord.  units (eV):
  Direction    XX          YY          ZZ          XY          YZ          ZX
  --------------------------------------------------------------------------------------
  Alpha Z     0.22926     0.22926     0.22926
  Ewald      41.20993    42.02990    43.71426    -0.91572     1.62407     2.93255
  Hartree    93.64406    93.89940    95.58987    -0.26693     0.92332     1.00825
  E(xc)     -27.00126   -27.00240   -27.01062    -0.00394     0.01049     0.01253
  Local    -194.02227  -194.86672  -198.11654     1.01167    -2.47786    -3.44349
  n-local   -15.42230   -15.46878   -15.50829    -0.00033     0.03619    -0.00974
  augment     0.12629     0.12399     0.12236     0.00126     0.00022    -0.00358
  Kinetic    99.69304    99.82436   100.21171     0.19876    -0.52986    -0.58548
  Fock        0.00000     0.00000     0.00000     0.00000     0.00000     0.00000
[...]
      5.73280      5.86387      4.44174         0.241187      0.466461     -0.073365
      5.52285      4.40451      5.41965        -0.068198     -0.019687     -0.006499
      5.25149      4.89585      4.47602         0.372884     -0.229384      0.501714
 -----------------------------------------------------------------------------------
    total drift:                                0.000043      0.000117      0.000349


--------------------------------------------------------------------------------------------------------



  FREE ENERGIE OF THE ION-ELECTRON SYSTEM (eV)
  ---------------------------------------------------
  free  energy   TOTEN  =       -24.01269118 eV

  energy  without entropy=      -24.01269118  energy(sigma->0) =      -24.01269118
 
 d Force =-0.7989336E-02[-0.975E-02,-0.623E-02]  d Energy =-0.7970052E-02-0.193E-04
 d Force =-0.1013832E+01[-0.102E+01,-0.101E+01]  d Ewald  =-0.1013821E+01-0.108E-04


--------------------------------------------------------------------------------------------------------


    POTLOK:  cpu time    0.1258: real time    0.1258


--------------------------------------------------------------------------------------------------------


 stress matrix after NEB project (eV)
      0.54730      0.05604     -0.18495
      0.05604      0.24508      0.19165
     -0.18495      0.19165     -0.04140
  FORCES: max atom, RMS     0.738698    0.560874
  FORCE total and by dimension    1.254153    0.735954
  Stress total and by dimension    0.713768    0.547300
           RANDOM_SEED =         581365295               30                0
   IONSTEP:  cpu time    0.0001: real time    0.0001

  ENERGY OF THE ELECTRON-ION-THERMOSTAT SYSTEM (eV)
  ---------------------------------------------------
% ion-electron   TOTEN  =       -24.012691  see above
  kinetic energy EKIN   =         0.019323
  kin. lattice  EKIN_LAT=         0.000000  (temperature   37.37 K)
  nose potential ES     =         0.000000
  nose kinetic   EPS    =         0.000000
  ---------------------------------------------------
  total energy   ETOTAL =       -23.993368 eV

  maximum distance moved by ions :      0.50E-03

    WAVPRE:  cpu time    0.0424: real time    0.0424
    FEWALD:  cpu time    0.0003: real time    0.0003
    ORTHCH:  cpu time    0.0083: real time    0.0083
 Prediction of Wavefunctions ALPHA= 2.220 BETA=-1.260
     LOOP+:  cpu time    2.0179: real time    2.0180


--------------------------------------- Iteration     10(   1)  ---------------------------------------


    POTLOK:  cpu time    0.1220: real time    0.1220
    SETDIJ:  cpu time    0.0015: real time    0.0015
     EDDAV:  cpu time    0.1400: real time    0.1400
       DOS:  cpu time    0.0002: real time    0.0002
    CHARGE:  cpu time    0.0166: real time    0.0166
    MIXING:  cpu time    0.0040: real time    0.0040
    --------------------------------------------
      LOOP:  cpu time    0.2843: real time    0.2843

 eigenvalue-minimisations  :    64
 total energy-change (2. order) : 0.7947930E-02  (-0.5669683E-04)
 number of electron       8.0000000 magnetization 
 augmentation part        0.1898408 magnetization 

 Broyden mixing:
  rms(total) = 0.20209E-03    rms(broyden)= 0.20049E-03
  rms(prec ) = 0.25472E-03
  weight for this iteration     100.00

 Free energy of the ion-electron system (eV)
  ---------------------------------------------------
  alpha Z        PSCENC =         0.22925755
  Ewald energy   TEWEN  =       134.87395222
  -Hartree energ DENC   =      -290.11419179
  -exchange      EXHF   =         0.00000000
  -V(xc)+E(xc)   XCENC  =        24.91960590
  PAW double counting   =       490.86853795     -491.66977420
  entropy T*S    EENTRO =        -0.00000000
  eigenvalues    EBANDS =       -90.15388455
  atomic energy  EATOM  =       197.04175453
  Solvation  Ediel_sol  =         0.00000000
  ---------------------------------------------------
  free energy    TOTEN  =       -24.00474239 eV

  energy without entropy =      -24.00474239  energy(sigma->0) =      -24.00474239


--------------------------------------------------------------------------------------------------------




--------------------------------------- Iteration     10(   2)  ---------------------------------------


    POTLOK:  cpu time    0.1207: real time    0.1207
    SETDIJ:  cpu time    0.0016: real time    0.0016
    EDDIAG:  cpu time    0.0334: real time    0.0334
  RMM-DIIS:  cpu time    0.1402: real time    0.1402
    ORTHCH:  cpu time    0.0016: real time    0.0016
       DOS:  cpu time    0.0002: real time    0.0002
    CHARGE:  cpu time    0.0169: real time    0.0169
    MIXING:  cpu time    0.0041: real time    0.0041
    --------------------------------------------
      LOOP:  cpu time    0.3186: real time    0.3187

 eigenvalue-minimisations  :    60
 total energy-change (2. order) :-0.2240587E-05  (-0.1424489E-05)
 number of electron       8.0000000 magnetization 
 augmentation part        0.1898494 magnetization 

 Broyden mixing:
  rms(total) = 0.31181E-03    rms(broyden)= 0.31152E-03
  rms(prec ) = 0.35181E-03
  weight for this iteration     100.00

 eigenvalues of (default mixing * dielectric matrix)
  average eigenvalue GAMMA=   0.1878
  0.1878

 Free energy of the ion-electron system (eV)
  ---------------------------------------------------
  alpha Z        PSCENC =         0.22925755
  Ewald energy   TEWEN  =       134.87395222
  -Hartree energ DENC   =      -290.11269202
  -exchange      EXHF   =         0.00000000
  -V(xc)+E(xc)   XCENC  =        24.91954933
  PAW double counting   =       490.84535092     -491.64655084
  entropy T*S    EENTRO =        -0.00000000
  eigenvalues    EBANDS =       -90.15536631
  atomic energy  EATOM  =       197.04175453
  Solvation  Ediel_sol  =         0.00000000
  ---------------------------------------------------
  free energy    TOTEN  =       -24.00474463 eV

  energy without entropy =      -24.00474463  energy(sigma->0) =      -24.00474463


--------------------------------------------------------------------------------------------------------




--------------------------------------- Iteration     10(   3)  ---------------------------------------


    POTLOK:  cpu time    0.1221: real time    0.1221
    SETDIJ:  cpu time    0.0015: real time    0.0015
    EDDIAG:  cpu time    0.0333: real time    0.0333
  RMM-DIIS:  cpu time    0.1170: real time    0.1170
    ORTHCH:  cpu time    0.0014: real time    0.0014
       DOS:  cpu time    0.0002: real time    0.0002
    CHARGE:  cpu time    0.0169: real time    0.0169
    MIXING:  cpu time    0.0042: real time    0.0042
    --------------------------------------------
      LOOP:  cpu time    0.2967: real time    0.2967

 eigenvalue-minimisations  :    48
 total energy-change (2. order) :-0.2099864E-07  (-0.2832197E-07)
 number of electron       8.0000000 magnetization 
 augmentation part        0.1898490 magnetization 

 Broyden mixing:
  rms(total) = 0.31021E-03    rms(broyden)= 0.31019E-03
  rms(prec ) = 0.34871E-03
  weight for this iteration     100.00

 eigenvalues of (default mixing * dielectric matrix)
  average eigenvalue GAMMA=   0.8766
  0.8766  0.8766

 Free energy of the ion-electron system (eV)
  ---------------------------------------------------
  alpha Z        PSCENC =         0.22925755
  Ewald energy   TEWEN  =       134.87395222
  -Hartree energ DENC   =      -290.11242076
  -exchange      EXHF   =         0.00000000
  -V(xc)+E(xc)   XCENC  =        24.91955044
  PAW double counting   =       490.82816397     -491.62936202
  entropy T*S    EENTRO =        -0.00000000
  eigenvalues    EBANDS =       -90.15564058
  atomic energy  EATOM  =       197.04175453
  Solvation  Ediel_sol  =         0.00000000
  ---------------------------------------------------
  free energy    TOTEN  =       -24.00474465 eV

  energy without entropy =      -24.00474465  energy(sigma->0) =      -24.00474465


--------------------------------------------------------------------------------------------------------




--------------------------------------- Iteration     10(   4)  ---------------------------------------


    POTLOK:  cpu time    0.1219: real time    0.1219
    SETDIJ:  cpu time    0.0015: real time    0.0015
    EDDIAG:  cpu time    0.0333: real time    0.0333
  RMM-DIIS:  cpu time    0.1143: real time    0.1143
    ORTHCH:  cpu time    0.0014: real time    0.0014
       DOS:  cpu time    0.0002: real time    0.0002
    --------------------------------------------
      LOOP:  cpu time    0.2724: real time    0.2725

 eigenvalue-minimisations  :    48
 total energy-change (2. order) :-0.8838965E-06  (-0.1245750E-07)
 number of electron       8.0000000 magnetization 
 augmentation part        0.1898490 magnetization 

 Free energy of the ion-electron system (eV)
  ---------------------------------------------------
  alpha Z        PSCENC =         0.22925755
  Ewald energy   TEWEN  =       134.87395222
  -Hartree energ DENC   =      -290.11095345
  -exchange      EXHF   =         0.00000000
  -V(xc)+E(xc)   XCENC  =        24.91955163
  PAW double counting   =       490.72596367     -491.52714808
  entropy T*S    EENTRO =        -0.00000000
  eigenvalues    EBANDS =       -90.15712360
  atomic energy  EATOM  =       197.04175453
  Solvation  Ediel_sol  =         0.00000000
  ---------------------------------------------------
  free energy    TOTEN  =       -24.00474553 eV

  energy without entropy =      -24.00474553  energy(sigma->0) =      -24.00474553


--------------------------------------------------------------------------------------------------------




 average (electrostatic) potential at core
  the test charge radii are     0.5201  0.6991
  (the norm of the test charge is              1.0000)
       1 -41.6361       2 -41.6973       3 -41.6248       4 -41.4648       5 -57.8705
 
 
 
 E-fermi :  -8.2980     XC(G=0):  -0.6444     alpha+bet : -0.1994


 k-point     1 :       0.2500    0.2500    0.2500
  band No.  band energies     occupation 
      1     -17.0125      2.00000
      2      -9.4059      2.00000
      3      -9.3866      2.00000
      4      -9.2734      2.00000
      5      -0.2991      0.00000
      6       0.5689      0.00000
      7       0.6703      0.00000
      8       0.7060      0.00000

 k-point     2 :      -0.2500    0.2500    0.2500
  band No.  band energies     occupation 
      1     -17.0126      2.00000
      2      -9.4060      2.00000
      3      -9.3866      2.00000
      4      -9.2734      2.00000
      5      -0.2957      0.00000
      6       0.5585      0.00000
      7       0.6649      0.00000
      8       0.6935      0.00000

 k-point     3 :       0.2500   -0.2500    0.2500
  band No.  band energies     occupation 
      1     -17.0126      2.00000
      2      -9.4059      2.00000
      3      -9.3866      2.00000
      4      -9.2734      2.00000
      5      -0.2950      0.00000
      6       0.5549      0.00000
      7       0.6685      0.00000
      8       0.6913      0.00000

 k-point     4 :      -0.2500   -0.2500    0.2500
  band No.  band energies     occupation 
      1     -17.0126      2.00000
      2      -9.4060      2.00000
      3      -9.3867      2.00000
      4      -9.2734      2.00000
      5      -0.2898      0.00000
      6       0.5508      0.00000
      7       0.6522      0.00000
      8       0.6760      0.00000


--------------------------------------------------------------------------------------------------------


 soft charge-density along one line, spin component           1
         0         1         2         3         4         5         6         7         8         9
 total charge-density along one line
 
 pseudopotential strength for first ion, spin component:           1
 -2.342  -4.036  -0.001  -0.001   0.001
 -4.036  -6.869  -0.003  -0.004   0.002
 -0.001  -0.003  -0.336   0.002  -0.001
 -0.001  -0.004   0.002  -0.335  -0.001
  0.001   0.002  -0.001  -0.001  -0.337
 total augmentation occupancy for first ion, spin component:           1
  3.616  -0.647   0.256   0.347  -0.141
 -0.647   0.131  -0.047  -0.064   0.026
  0.256  -0.047   0.025   0.020  -0.008
  0.347  -0.064   0.020   0.038  -0.011
 -0.141   0.026  -0.008  -0.011   0.015


------------------------ aborting loop because EDIFF is reached ----------------------------------------


    CHARGE:  cpu time    0.0165: real time    0.0165
    FORLOC:  cpu time    0.0111: real time    0.0111
    FORNL :  cpu time    0.0180: real time    0.0180
    STRESS:  cpu time    0.1435: real time    0.1435
    FORCOR:  cpu time    0.1282: real time    0.1282
    FORHAR:  cpu time    0.0413: real time    0.0413
    MIXING:  cpu time    0.0048: real time    0.0048
    OFIELD:  cpu time    0.0000: real time    0.0000

  FORCE on cell =-STRESS in cart. coord.  units (eV):
  Direction    XX          YY          ZZ          XY          YZ          ZX
  --------------------------------------------------------------------------------------
  Alpha Z     0.22926     0.22926     0.22926
  Ewald      44.70580    44.33459    45.83351    -0.25993     1.25511     0.70598
  Hartree    95.66906    96.09868    98.33935    -0.14545     0.41667     0.56923
  E(xc)     -27.40433   -27.40290   -27.40170    -0.00147     0.00051     0.00366
  Local    -198.55992  -198.96142  -203.03686     0.38950    -1.36084    -1.29447
  n-local   -16.33688   -16.30312   -16.26266    -0.00612    -0.02795     0.01526
  augment     0.10350     0.10770     0.11126     0.00000    -0.00313     0.00061
  Kinetic   102.36582   102.30401   102.23038     0.07852    -0.02243    -0.18112
  Fock        0.00000     0.00000     0.00000     0.00000     0.00000     0.00000
  -------------------------------------------------------------------------------------
  Total       0.77231     0.40680     0.04254     0.05506     0.25795    -0.18085
  in kB       1.17101     0.61681     0.06450     0.08348     0.39111    -0.27421
  external pressure =        0.62 kB  Pullay stress =        0.00 kB

  kinetic pressure (ideal gas correction) =      0.02 kB
  total pressure  =      0.63 kB
  Total+kin.     1.191       0.634       0.074       0.083       0.400      -0.266

 VOLUME and BASIS-vectors are now :
 -----------------------------------------------------------------------------
  energy-cutoff  :      400.00
  volume of cell :     1056.68
      direct lattice vectors                 reciprocal lattice vectors
    10.266149064  0.000000000  0.000000000     0.097407508  0.000480428 -0.002424041
    -0.050497009 10.238342752  0.000000000     0.000000000  0.097672057 -0.002511180
     0.248904764  0.258471053 10.053199959     0.000000000  0.000000000  0.099470816

  length of vectors
    10.266149064 10.238467281 10.059601895     0.097438850  0.097704334  0.099470816


 FORCES acting on ions
    electron-ion (+dipol)            ewald-force                    non-local-force                 convergence-correction
 -----------------------------------------------------------------------------------------------
   -.168E+02 0.304E+02 0.413E+02   0.189E+02 -.341E+02 -.463E+02   -.180E+01 0.326E+01 0.442E+01   0.472E-04 0.148E-03 0.155E-03
   0.539E+02 -.640E+01 0.283E+01   -.606E+02 0.719E+01 -.316E+01   0.584E+01 -.699E+00 0.312E+00   0.393E-03 -.655E-04 0.316E-04
   -.240E+02 -.483E+02 0.188E+01   0.269E+02 0.541E+02 -.212E+01   -.257E+01 -.516E+01 0.188E+00   0.610E-05 -.210E-03 -.468E-04
   -.130E+02 0.239E+02 -.456E+02   0.143E+02 -.263E+02 0.503E+02   -.135E+01 0.245E+01 -.470E+01   0.354E-04 0.858E-04 -.224E-03
   -.407E+00 0.700E+00 -.914E+00   0.603E+00 -.867E+00 0.121E+01   0.238E+00 -.119E+00 0.300E+00   0.616E-03 0.538E-05 -.251E-03
 -----------------------------------------------------------------------------------------------
   -.364E+00 0.268E+00 -.520E+00   -.533E-14 -.355E-14 0.000E+00   0.362E+00 -.268E+00 0.521E+00   0.110E-02 -.364E-04 -.336E-03
 
 
 POSITION                                       TOTAL-FORCE (eV/Angst)
 -----------------------------------------------------------------------------------
      5.58742      4.28931      3.65176         0.223451     -0.369032     -0.522633
      4.19007      5.02233      4.42017        -0.913468      0.089150     -0.016930
      5.73136      5.86058      4.43902         0.297098      0.582871     -0.054618
      5.51984      4.40372      5.41944        -0.041046     -0.018057      0.002907
      5.25150      4.89601      4.47593         0.433755     -0.284954      0.591904
 -----------------------------------------------------------------------------------
    total drift:                               -0.000209     -0.000023      0.000631


--------------------------------------------------------------------------------------------------------



  FREE ENERGIE OF THE ION-ELECTRON SYSTEM (eV)
  ---------------------------------------------------
  free  energy   TOTEN  =       -24.00474553 eV

  energy  without entropy=      -24.00474553  energy(sigma->0) =      -24.00474553
 
 d Force =-0.7949803E-02[-0.897E-02,-0.693E-02]  d Energy =-0.7945651E-02-0.415E-05
 d Force =-0.7594372E+00[-0.762E+00,-0.757E+00]  d Ewald  =-0.7594341E+00-0.309E-05


--------------------------------------------------------------------------------------------------------


    POTLOK:  cpu time    0.1246: real time    0.1246


--------------------------------------------------------------------------------------------------------


 stress matrix after NEB project (eV)
      0.77231      0.05506     -0.18085
      0.05506      0.40680      0.25795
     -0.18085      0.25795      0.04254
  FORCES: max atom, RMS     0.917964    0.686239
  FORCE total and by dimension    1.534477    0.913468
  Stress total and by dimension    0.984026    0.772311
           RANDOM_SEED =         581365295               30                0
   IONSTEP:  cpu time    0.0002: real time    0.0002

  ENERGY OF THE ELECTRON-ION-THERMOSTAT SYSTEM (eV)
  ---------------------------------------------------
% ion-electron   TOTEN  =       -24.004746  see above
  kinetic energy EKIN   =         0.011560
  kin. lattice  EKIN_LAT=         0.000000  (temperature   22.36 K)
  nose potential ES     =         0.000000
  nose kinetic   EPS    =         0.000000
  ---------------------------------------------------
  total energy   ETOTAL =       -23.993185 eV

  maximum distance moved by ions :      0.34E-03


 mean value of Nose-termostat <S>:     1.000 mean value of <T> :    37.067
 mean temperature <T/S>/<1/S>  :    37.067

    WAVPRE:  cpu time    0.0460: real time    0.0460
    FEWALD:  cpu time    0.0003: real time    0.0003
    ORTHCH:  cpu time    0.0081: real time    0.0081
 Prediction of Wavefunctions ALPHA= 2.137 BETA=-1.166
    POTLOK:  cpu time    0.1228: real time    0.1228
    EDDIAG:  cpu time    0.0338: real time    0.0339
     LOOP+:  cpu time    1.8754: real time    1.8755
    4ORBIT:  cpu time    0.0000: real time    0.0005

 total amount of memory used by VASP MPI-rank0    56810. kBytes
=======================================================================

   base      :      30000. kBytes
   nonl-proj :       2848. kBytes
   fftplans  :       8578. kBytes
   grid      :      13527. kBytes
   one-center:          6. kBytes
   wavefun   :       1851. kBytes
 
  
  
 General timing and accounting informations for this job:
 ========================================================
  
                  Total CPU time used (sec):       25.596
                            User time (sec):       24.337
                          System time (sec):        1.259
                         Elapsed time (sec):       26.201
  
                   Maximum memory used (kb):      177448.
                   Average memory used (kb):           0.
  
                          Minor page faults:       260042
                          Major page faults:          124
                 Voluntary context switches:          507
