<?xml version="1.0" encoding="ISO-8859-1"?>
<modeling>
 <generator>
  <i name="program" type="string">vasp </i>
  <i name="version" type="string">5.4.4.18Apr17-6-g9f103f2a35  </i>
  <i name="subversion" type="string">(build Nov 25 2021 15:25:00) complex            parallel </i>
  <i name="platform" type="string">LinuxIFC </i>
  <i name="date" type="string">2022 02 21 </i>
  <i name="time" type="string">10:17:25 </i>
 </generator>
 <incar>
  <i type="string" name="PREC">a</i>
  <i type="string" name="ALGO">Fast</i>
  <i type="int" name="NELM">   120</i>
  <i type="int" name="NELMIN">     4</i>
  <i type="int" name="IBRION">     0</i>
  <i name="EDIFF">      0.00000100</i>
  <i type="int" name="NSW">    10</i>
  <i type="int" name="ISIF">     2</i>
  <i type="int" name="ISYM">     0</i>
  <i name="ENCUT">    400.00000000</i>
  <i name="POTIM">      0.50000000</i>
  <i type="logical" name="LREAL"> F  </i>
  <i type="int" name="ISMEAR">     0</i>
  <i name="SIGMA">      0.20000000</i>
  <i name="KSPACING">      0.50000000</i>
  <i type="logical" name="KGAMMA"> F  </i>
  <i name="PSTRESS">      0.00000000</i>
  <i type="logical" name="LWAVE"> F  </i>
  <i type="logical" name="LCHARG"> F  </i>
  <v type="int" name="KPOINT_BSE">    -1     0     0     0</v>
  <i type="int" name="NELM">   120</i>
 </incar>
 <structure name="primitive_cell" >
  <crystal>
   <varray name="basis" >
    <v>      10.26614906       0.00000000       0.00000000 </v>
    <v>      -0.05049701      10.23834275       0.00000000 </v>
    <v>       0.24890476       0.25847105      10.05319996 </v>
   </varray>
   <i name="volume">   1056.67528873 </i>
   <varray name="rec_basis" >
    <v>       0.09740751       0.00048043      -0.00242404 </v>
    <v>       0.00000000       0.09767206      -0.00251118 </v>
    <v>       0.00000000       0.00000000       0.09947082 </v>
   </varray>
  </crystal>
  <varray name="positions" >
   <v>      -0.46167392       0.40663674       0.36049066 </v>
   <v>      -0.49687638       0.46679840       0.44542759 </v>
   <v>      -0.47168285       0.41695407      -0.46083196 </v>
   <v>       0.39460445       0.48053815       0.43839062 </v>
   <v>      -0.44798567      -0.43515496       0.44306030 </v>
  </varray>
 </structure>
 <varray name="primitive_index" >
  <v type="int" >        1 </v>
  <v type="int" >        5 </v>
  <v type="int" >        4 </v>
  <v type="int" >        2 </v>
  <v type="int" >        3 </v>
 </varray>
 <kpoints>
  <generation param="Monkhorst-Pack">
   <v type="int" name="divisions">       2        2        2 </v>
   <v name="usershift">      0.00000000       0.00000000       0.00000000 </v>
   <v name="genvec1">      0.50000000       0.00000000       0.00000000 </v>
   <v name="genvec2">      0.00000000       0.50000000      -0.00000000 </v>
   <v name="genvec3">      0.00000000       0.00000000       0.50000000 </v>
   <v name="shift">      0.50000000       0.50000000       0.50000000 </v>
  </generation>
  <varray name="kpointlist" >
   <v>       0.25000000       0.25000000       0.25000000 </v>
   <v>      -0.25000000       0.25000000       0.25000000 </v>
   <v>       0.25000000      -0.25000000       0.25000000 </v>
   <v>      -0.25000000      -0.25000000       0.25000000 </v>
  </varray>
  <varray name="weights" >
   <v>       0.25000000 </v>
   <v>       0.25000000 </v>
   <v>       0.25000000 </v>
   <v>       0.25000000 </v>
  </varray>
 </kpoints>
 <parameters>
  <separator name="general" >
   <i type="string" name="SYSTEM">unknown system</i>
   <i type="logical" name="LCOMPAT"> F  </i>
  </separator>
  <separator name="electronic" >
   <i type="string" name="PREC">a</i>
   <i name="ENMAX">    400.00000000</i>
   <i name="ENAUG">    644.87300000</i>
   <i name="EDIFF">      0.00000100</i>
   <i type="int" name="IALGO">    68</i>
   <i type="int" name="IWAVPR">    12</i>
   <i type="int" name="NBANDS">     8</i>
   <i name="NELECT">      8.00000000</i>
   <i type="int" name="TURBO">     0</i>
   <i type="int" name="IRESTART">     0</i>
   <i type="int" name="NREBOOT">     0</i>
   <i type="int" name="NMIN">     0</i>
   <i name="EREF">      0.00000000</i>
   <separator name="electronic smearing" >
    <i type="int" name="ISMEAR">     0</i>
    <i name="SIGMA">      0.20000000</i>
    <i name="KSPACING">      0.50000000</i>
    <i type="logical" name="KGAMMA"> F  </i>
   </separator>
   <separator name="electronic projectors" >
    <i type="logical" name="LREAL"> F  </i>
    <v name="ROPT">      0.00000000      0.00000000</v>
    <i type="int" name="LMAXPAW">  -100</i>
    <i type="int" name="LMAXMIX">     2</i>
    <i type="logical" name="NLSPLINE"> F  </i>
   </separator>
   <separator name="electronic startup" >
    <i type="int" name="ISTART">     0</i>
    <i type="int" name="ICHARG">     2</i>
    <i type="int" name="INIWAV">     1</i>
   </separator>
   <separator name="electronic spin" >
    <i type="int" name="ISPIN">     1</i>
    <i type="logical" name="LNONCOLLINEAR"> F  </i>
    <v name="MAGMOM">      1.00000000      1.00000000      1.00000000      1.00000000      1.00000000</v>
    <i name="NUPDOWN">     -1.00000000</i>
    <i type="logical" name="LSORBIT"> F  </i>
    <v name="SAXIS">      0.00000000      0.00000000      1.00000000</v>
    <i type="logical" name="LSPIRAL"> F  </i>
    <v name="QSPIRAL">      0.00000000      0.00000000      0.00000000</v>
    <i type="logical" name="LZEROZ"> F  </i>
   </separator>
   <separator name="electronic exchange-correlation" >
    <i type="logical" name="LASPH"> F  </i>
    <i type="logical" name="LMETAGGA"> F  </i>
   </separator>
   <separator name="electronic convergence" >
    <i type="int" name="NELM">   120</i>
    <i type="int" name="NELMDL">    -5</i>
    <i type="int" name="NELMIN">     4</i>
    <i name="ENINI">    400.00000000</i>
    <separator name="electronic convergence detail" >
     <i type="logical" name="LDIAG"> T  </i>
     <i type="logical" name="LSUBROT"> F  </i>
     <i name="WEIMIN">      0.00100000</i>
     <i name="EBREAK">      0.00000003</i>
     <i name="DEPER">      0.30000000</i>
     <i type="int" name="NRMM">     4</i>
     <i name="TIME">      0.40000000</i>
    </separator>
   </separator>
   <separator name="electronic mixer" >
    <i name="AMIX">      0.40000000</i>
    <i name="BMIX">      1.00000000</i>
    <i name="AMIN">      0.10000000</i>
    <i name="AMIX_MAG">      1.60000000</i>
    <i name="BMIX_MAG">      1.00000000</i>
    <separator name="electronic mixer details" >
     <i type="int" name="IMIX">     4</i>
     <i type="logical" name="MIXFIRST"> F  </i>
     <i type="int" name="MAXMIX">   -45</i>
     <i name="WC">    100.00000000</i>
     <i type="int" name="INIMIX">     1</i>
     <i type="int" name="MIXPRE">     1</i>
     <i type="int" name="MREMOVE">     5</i>
    </separator>
   </separator>
   <separator name="electronic dipolcorrection" >
    <i type="logical" name="LDIPOL"> F  </i>
    <i type="logical" name="LMONO"> F  </i>
    <i type="int" name="IDIPOL">     0</i>
    <i name="EPSILON">      1.00000000</i>
    <v name="DIPOL">   -100.00000000   -100.00000000   -100.00000000</v>
    <i name="EFIELD">      0.00000000</i>
   </separator>
  </separator>
  <separator name="grids" >
   <i type="int" name="NGX">    70</i>
   <i type="int" name="NGY">    70</i>
   <i type="int" name="NGZ">    70</i>
   <i type="int" name="NGXF">   140</i>
   <i type="int" name="NGYF">   140</i>
   <i type="int" name="NGZF">   140</i>
   <i type="logical" name="ADDGRID"> F  </i>
  </separator>
  <separator name="ionic" >
   <i type="int" name="NSW">    10</i>
   <i type="int" name="IBRION">     0</i>
   <i type="int" name="MDALGO">     0</i>
   <i type="int" name="ISIF">     2</i>
   <i name="PSTRESS">      0.00000000</i>
   <i name="EDIFFG">      0.00001000</i>
   <i type="int" name="NFREE">     0</i>
   <i name="POTIM">      0.50000000</i>
   <i name="SMASS">     -3.00000000</i>
   <i name="SCALEE">      1.00000000</i>
  </separator>
  <separator name="ionic md" >
   <i name="TEBEG">      0.00010000</i>
   <i name="TEEND">      0.00010000</i>
   <i type="int" name="NBLOCK">     1</i>
   <i type="int" name="KBLOCK">    10</i>
   <i type="int" name="NPACO">   256</i>
   <i name="APACO">     16.00000000</i>
  </separator>
  <separator name="symmetry" >
   <i type="int" name="ISYM">     0</i>
   <i name="SYMPREC">      0.00001000</i>
  </separator>
  <separator name="dos" >
   <i type="int" name="LORBIT">     0</i>
   <v name="RWIGS">     -1.00000000     -1.00000000</v>
   <i type="int" name="NEDOS">   301</i>
   <i name="EMIN">     10.00000000</i>
   <i name="EMAX">    -10.00000000</i>
   <i name="EFERMI">      0.00000000</i>
  </separator>
  <separator name="writing" >
   <i type="int" name="NWRITE">     2</i>
   <i type="logical" name="LWAVE"> F  </i>
   <i type="logical" name="LDOWNSAMPLE"> F  </i>
   <i type="logical" name="LCHARG"> F  </i>
   <i type="logical" name="LPARD"> F  </i>
   <i type="logical" name="LVTOT"> F  </i>
   <i type="logical" name="LVHAR"> F  </i>
   <i type="logical" name="LELF"> F  </i>
   <i type="logical" name="LOPTICS"> F  </i>
   <v name="STM">      0.00000000      0.00000000      0.00000000      0.00000000      0.00000000      0.00000000      0.00000000</v>
  </separator>
  <separator name="performance" >
   <i type="int" name="NPAR">     4</i>
   <i type="int" name="NSIM">     4</i>
   <i type="int" name="NBLK">    -1</i>
   <i type="logical" name="LPLANE"> T  </i>
   <i type="logical" name="LSCALAPACK"> T  </i>
   <i type="logical" name="LSCAAWARE"> F  </i>
   <i type="logical" name="LSCALU"> F  </i>
   <i type="logical" name="LASYNC"> F  </i>
   <i type="logical" name="LORBITALREAL"> F  </i>
  </separator>
  <separator name="miscellaneous" >
   <i type="int" name="IDIOT">     3</i>
   <i type="int" name="ISPECIAL">     0</i>
   <i type="logical" name="LMUSIC"> F  </i>
   <v name="POMASS">      1.00000000     12.01100000</v>
   <v name="DARWINR">      0.00000000      0.00000000</v>
   <v name="DARWINV">      1.00000000      1.00000000</v>
   <i type="logical" name="LCORR"> T  </i>
  </separator>
  <i type="logical" name="GGA_COMPAT"> T  </i>
  <i type="logical" name="LBERRY"> F  </i>
  <i type="int" name="ICORELEVEL">     0</i>
  <i type="logical" name="LDAU"> F  </i>
  <i type="int" name="I_CONSTRAINED_M">     0</i>
  <separator name="electronic exchange-correlation" >
   <i type="string" name="GGA">--</i>
   <i type="int" name="VOSKOWN">     0</i>
   <i type="logical" name="LHFCALC"> F  </i>
   <i type="string" name="PRECFOCK"></i>
   <i type="logical" name="LSYMGRAD"> F  </i>
   <i type="logical" name="LHFONE"> F  </i>
   <i type="logical" name="LRHFCALC"> F  </i>
   <i type="logical" name="LTHOMAS"> F  </i>
   <i type="logical" name="LMODELHF"> F  </i>
   <i name="ENCUT4O">     -1.00000000</i>
   <i type="int" name="EXXOEP">     0</i>
   <i type="int" name="FOURORBIT">     0</i>
   <i name="AEXX">      0.00000000</i>
   <i name="HFALPHA">      0.00000000</i>
   <i name="MCALPHA">      0.00000000</i>
   <i name="ALDAX">      1.00000000</i>
   <i name="AGGAX">      1.00000000</i>
   <i name="ALDAC">      1.00000000</i>
   <i name="AGGAC">      1.00000000</i>
   <i type="int" name="NKREDX">     1</i>
   <i type="int" name="NKREDY">     1</i>
   <i type="int" name="NKREDZ">     1</i>
   <i type="logical" name="SHIFTRED"> F  </i>
   <i type="logical" name="ODDONLY"> F  </i>
   <i type="logical" name="EVENONLY"> F  </i>
   <i type="int" name="LMAXFOCK">     0</i>
   <i type="int" name="NMAXFOCKAE">     0</i>
   <i type="logical" name="LFOCKAEDFT"> F  </i>
   <i name="HFSCREEN">      0.00000000</i>
   <i name="HFSCREENC">      0.00000000</i>
   <i type="int" name="NBANDSGWLOW">     0</i>
  </separator>
  <separator name="vdW DFT" >
   <i type="logical" name="LUSE_VDW"> F  </i>
   <i name="Zab_VDW">     -0.84910000</i>
   <i name="PARAM1">      0.12340000</i>
   <i name="PARAM2">      1.00000000</i>
   <i name="PARAM3">      0.00000000</i>
  </separator>
  <separator name="model GW" >
   <i type="int" name="MODEL_GW">     0</i>
   <i name="MODEL_EPS0">    126.80103465</i>
   <i name="MODEL_ALPHA">      1.00000000</i>
  </separator>
  <separator name="linear response parameters" >
   <i type="logical" name="LEPSILON"> F  </i>
   <i type="logical" name="LRPA"> F  </i>
   <i type="logical" name="LNABLA"> F  </i>
   <i type="logical" name="LVEL"> F  </i>
   <i type="int" name="KINTER">     0</i>
   <i name="CSHIFT">      0.10000000</i>
   <i name="OMEGAMAX">     -1.00000000</i>
   <i name="DEG_THRESHOLD">      0.00200000</i>
   <i name="RTIME">     -0.10000000</i>
   <i name="WPLASMAI">      0.00000000</i>
   <v name="DFIELD">      0.00000000      0.00000000      0.00000000</v>
   <v name="WPLASMA">      0.00000000      0.00000000      0.00000000      0.00000000      0.00000000      0.00000000      0.00000000      0.00000000      0.00000000</v>
  </separator>
  <separator name="orbital magnetization" >
   <i type="logical" name="NUCIND"> F  </i>
   <v name="MAGPOS">      0.00000000      0.00000000      0.00000000</v>
   <i type="logical" name="LNICSALL"> T  </i>
   <i type="logical" name="ORBITALMAG"> F  </i>
   <i type="logical" name="LMAGBLOCH"> F  </i>
   <i type="logical" name="LCHIMAG"> F  </i>
   <i type="logical" name="LGAUGE"> T  </i>
   <i type="int" name="MAGATOM">     0</i>
   <v name="MAGDIPOL">      0.00000000      0.00000000      0.00000000</v>
   <v name="AVECCONST">      0.00000000      0.00000000      0.00000000</v>
  </separator>
  <separator name="response functions" >
   <i type="logical" name="LADDER"> F  </i>
   <i type="logical" name="LRPAFORCE"> F  </i>
   <i type="logical" name="LFXC"> F  </i>
   <i type="logical" name="LHARTREE"> T  </i>
   <i type="int" name="IBSE">     0</i>
   <v type="int" name="KPOINT">    -1     0     0     0</v>
   <i type="logical" name="LTCTE"> F  </i>
   <i type="logical" name="LTETE"> F  </i>
   <i type="logical" name="LTRIPLET"> F  </i>
   <i type="logical" name="LFXCEPS"> F  </i>
   <i type="logical" name="LFXHEG"> F  </i>
   <i type="int" name="NATURALO">     2</i>
   <i type="logical" name="L2ORDER"> F  </i>
   <i type="logical" name="LMP2LT"> F  </i>
   <i type="logical" name="LUSEW"> F  </i>
   <i name="ENCUTGW">     -2.00000000</i>
   <i name="ENCUTGWSOFT">     -2.00000000</i>
   <i name="ENCUTLF">     -1.00000000</i>
   <i type="int" name="LMAXMP2">    -1</i>
   <i name="SCISSOR">      0.00000000</i>
   <i type="int" name="NOMEGA">     0</i>
   <i type="int" name="NOMEGAR">     0</i>
   <i type="int" name="NBANDSGW">    -1</i>
   <i type="int" name="NBANDSO">    -1</i>
   <i type="int" name="NBANDSV">    -1</i>
   <i type="int" name="NELM">   120</i>
   <i type="int" name="NELMHF">     1</i>
   <i type="int" name="DIM">     3</i>
   <i type="int" name="ANTIRES">     0</i>
   <i name="OMEGAMAX">    -30.00000000</i>
   <i name="OMEGAMIN">    -30.00000000</i>
   <i name="OMEGATL">   -200.00000000</i>
   <i type="int" name="OMEGAGRID">   140</i>
   <i name="CSHIFT">     -0.10000000</i>
   <i type="logical" name="SELFENERGY"> F  </i>
   <i type="logical" name="LSPECTRAL"> F  </i>
   <i type="logical" name="LSPECTRALGW"> F  </i>
   <i type="logical" name="LSINGLES"> F  </i>
   <i type="logical" name="LFERMIGW"> F  </i>
   <i type="logical" name="ODDONLYGW"> F  </i>
   <i type="logical" name="EVENONLYGW"> F  </i>
   <i type="int" name="NKREDLFX">     1</i>
   <i type="int" name="NKREDLFY">     1</i>
   <i type="int" name="NKREDLFZ">     1</i>
   <i type="int" name="MAXMEM">  2800</i>
   <i type="int" name="TELESCOPE">     0</i>
   <i type="int" name="TAUPAR">     1</i>
   <i type="int" name="OMEGAPAR">    -1</i>
   <i name="LAMBDA">      1.00000000</i>
  </separator>
  <separator name="External order field" >
   <i name="OFIELD_KAPPA">      0.00000000</i>
   <v name="OFIELD_K">      0.00000000      0.00000000      0.00000000</v>
   <i name="OFIELD_Q6_NEAR">      0.00000000</i>
   <i name="OFIELD_Q6_FAR">      0.00000000</i>
   <i name="OFIELD_A">      0.00000000</i>
  </separator>
 </parameters>
 <atominfo>
  <atoms>       5 </atoms>
  <types>       2 </types>
  <array name="atoms" >
   <dimension dim="1">ion</dimension>
   <field type="string">element</field>
   <field type="int">atomtype</field>
   <set>
    <rc><c>H </c><c>   1</c></rc>
    <rc><c>H </c><c>   1</c></rc>
    <rc><c>H </c><c>   1</c></rc>
    <rc><c>H </c><c>   1</c></rc>
    <rc><c>C </c><c>   2</c></rc>
   </set>
  </array>
  <array name="atomtypes" >
   <dimension dim="1">type</dimension>
   <field type="int">atomspertype</field>
   <field type="string">element</field>
   <field>mass</field>
   <field>valence</field>
   <field type="string">pseudopotential</field>
   <set>
    <rc><c>   4</c><c>H </c><c>      1.00000000</c><c>      1.00000000</c><c>  PAW_PBE H 15Jun2001                   </c></rc>
    <rc><c>   1</c><c>C </c><c>     12.01100000</c><c>      4.00000000</c><c>  PAW_PBE C 08Apr2002                   </c></rc>
   </set>
  </array>
 </atominfo>
 <structure name="initialpos" >
  <crystal>
   <varray name="basis" >
    <v>      10.26614906       0.00000000       0.00000000 </v>
    <v>      -0.05049701      10.23834275       0.00000000 </v>
    <v>       0.24890476       0.25847105      10.05319996 </v>
   </varray>
   <i name="volume">   1056.67528873 </i>
   <varray name="rec_basis" >
    <v>       0.09740751       0.00048043      -0.00242404 </v>
    <v>       0.00000000       0.09767206      -0.00251118 </v>
    <v>       0.00000000       0.00000000       0.09947082 </v>
   </varray>
  </crystal>
  <varray name="positions" >
   <v>       0.53832608       0.40663674       0.36049066 </v>
   <v>       0.39460445       0.48053815       0.43839062 </v>
   <v>       0.55201433       0.56484504       0.44306030 </v>
   <v>       0.52831715       0.41695407       0.53916804 </v>
   <v>       0.50312362       0.46679840       0.44542759 </v>
  </varray>
  <varray name="velocities" >
   <v>      -0.00000040       0.00000083      -0.00000037 </v>
   <v>      -0.00000038       0.00000012       0.00000030 </v>
   <v>       0.00000000      -0.00000039       0.00000001 </v>
   <v>       0.00000098      -0.00000013       0.00000008 </v>
   <v>      -0.00000002      -0.00000004      -0.00000000 </v>
  </varray>
 </structure>
 <calculation>
  <scstep>
   <time name="dav">    0.19    0.21</time>
   <time name="total">    0.33    0.36</time>
   <energy>
    <i name="alphaZ">      0.22925755 </i>
    <i name="ewald">    126.64073203 </i>
    <i name="hartreedc">   -243.91672802 </i>
    <i name="XCdc">     21.90363133 </i>
    <i name="pawpsdc">    117.05815612 </i>
    <i name="pawaedc">   -117.66307307 </i>
    <i name="eentropy">     -0.00014397 </i>
    <i name="bandstr">    -86.80941001 </i>
    <i name="atom">    197.04175453 </i>
    <i name="e_fr_energy">     14.48417651 </i>
    <i name="e_wo_entrp">     14.48432047 </i>
    <i name="e_0_energy">     14.48424849 </i>
   </energy>
  </scstep>
  <scstep>
   <time name="dav">    0.15    0.16</time>
   <time name="total">    0.15    0.16</time>
   <energy>
    <i name="e_fr_energy">    -22.76342872 </i>
    <i name="e_wo_entrp">    -22.76342872 </i>
    <i name="e_0_energy">    -22.76342872 </i>
   </energy>
  </scstep>
  <scstep>
   <time name="dav">    0.14    0.14</time>
   <time name="total">    0.14    0.14</time>
   <energy>
    <i name="e_fr_energy">    -27.06296655 </i>
    <i name="e_wo_entrp">    -27.06296655 </i>
    <i name="e_0_energy">    -27.06296655 </i>
   </energy>
  </scstep>
  <scstep>
   <time name="dav">    0.24    0.24</time>
   <time name="total">    0.24    0.24</time>
   <energy>
    <i name="e_fr_energy">    -27.26280666 </i>
    <i name="e_wo_entrp">    -27.26280666 </i>
    <i name="e_0_energy">    -27.26280666 </i>
   </energy>
  </scstep>
  <scstep>
   <time name="dav">    0.19    0.19</time>
   <time name="total">    0.21    0.21</time>
   <energy>
    <i name="e_fr_energy">    -27.26289504 </i>
    <i name="e_wo_entrp">    -27.26289504 </i>
    <i name="e_0_energy">    -27.26289504 </i>
   </energy>
  </scstep>
  <scstep>
   <time name="diag">    0.04    0.05</time>
   <time name="diis">    0.14    0.14</time>
   <time name="orth">    0.00    0.00</time>
   <time name="total">    0.34    0.35</time>
   <energy>
    <i name="e_fr_energy">    -24.58663623 </i>
    <i name="e_wo_entrp">    -24.58663623 </i>
    <i name="e_0_energy">    -24.58663623 </i>
   </energy>
  </scstep>
  <scstep>
   <time name="diag">    0.03    0.03</time>
   <time name="diis">    0.14    0.14</time>
   <time name="orth">    0.00    0.00</time>
   <time name="total">    0.33    0.33</time>
   <energy>
    <i name="e_fr_energy">    -24.13440434 </i>
    <i name="e_wo_entrp">    -24.13440434 </i>
    <i name="e_0_energy">    -24.13440434 </i>
   </energy>
  </scstep>
  <scstep>
   <time name="diag">    0.03    0.03</time>
   <time name="diis">    0.14    0.14</time>
   <time name="orth">    0.00    0.00</time>
   <time name="total">    0.34    0.34</time>
   <energy>
    <i name="e_fr_energy">    -23.99160080 </i>
    <i name="e_wo_entrp">    -23.99160080 </i>
    <i name="e_0_energy">    -23.99160080 </i>
   </energy>
  </scstep>
  <scstep>
   <time name="diag">    0.03    0.03</time>
   <time name="diis">    0.14    0.14</time>
   <time name="orth">    0.00    0.00</time>
   <time name="total">    0.34    0.34</time>
   <energy>
    <i name="e_fr_energy">    -23.98607414 </i>
    <i name="e_wo_entrp">    -23.98607414 </i>
    <i name="e_0_energy">    -23.98607414 </i>
   </energy>
  </scstep>
  <scstep>
   <time name="diag">    0.03    0.03</time>
   <time name="diis">    0.14    0.14</time>
   <time name="orth">    0.00    0.00</time>
   <time name="total">    0.33    0.33</time>
   <energy>
    <i name="e_fr_energy">    -23.97957307 </i>
    <i name="e_wo_entrp">    -23.97957307 </i>
    <i name="e_0_energy">    -23.97957307 </i>
   </energy>
  </scstep>
  <scstep>
   <time name="diag">    0.03    0.03</time>
   <time name="diis">    0.14    0.14</time>
   <time name="orth">    0.00    0.00</time>
   <time name="total">    0.33    0.33</time>
   <energy>
    <i name="e_fr_energy">    -23.98042559 </i>
    <i name="e_wo_entrp">    -23.98042559 </i>
    <i name="e_0_energy">    -23.98042559 </i>
   </energy>
  </scstep>
  <scstep>
   <time name="diag">    0.03    0.03</time>
   <time name="diis">    0.15    0.15</time>
   <time name="orth">    0.00    0.00</time>
   <time name="total">    0.32    0.32</time>
   <energy>
    <i name="e_fr_energy">    -23.98958342 </i>
    <i name="e_wo_entrp">    -23.98958342 </i>
    <i name="e_0_energy">    -23.98958342 </i>
   </energy>
  </scstep>
  <scstep>
   <time name="diag">    0.03    0.03</time>
   <time name="diis">    0.14    0.14</time>
   <time name="orth">    0.00    0.00</time>
   <time name="total">    0.32    0.32</time>
   <energy>
    <i name="e_fr_energy">    -23.99018013 </i>
    <i name="e_wo_entrp">    -23.99018013 </i>
    <i name="e_0_energy">    -23.99018013 </i>
   </energy>
  </scstep>
  <scstep>
   <time name="diag">    0.03    0.03</time>
   <time name="diis">    0.14    0.14</time>
   <time name="orth">    0.00    0.00</time>
   <time name="total">    0.32    0.32</time>
   <energy>
    <i name="e_fr_energy">    -23.99308073 </i>
    <i name="e_wo_entrp">    -23.99308073 </i>
    <i name="e_0_energy">    -23.99308073 </i>
   </energy>
  </scstep>
  <scstep>
   <time name="diag">    0.03    0.03</time>
   <time name="diis">    0.14    0.14</time>
   <time name="orth">    0.00    0.00</time>
   <time name="total">    0.32    0.32</time>
   <energy>
    <i name="e_fr_energy">    -23.99330247 </i>
    <i name="e_wo_entrp">    -23.99330247 </i>
    <i name="e_0_energy">    -23.99330247 </i>
   </energy>
  </scstep>
  <scstep>
   <time name="diag">    0.03    0.03</time>
   <time name="diis">    0.14    0.14</time>
   <time name="orth">    0.00    0.00</time>
   <time name="total">    0.32    0.32</time>
   <energy>
    <i name="e_fr_energy">    -23.99353113 </i>
    <i name="e_wo_entrp">    -23.99353113 </i>
    <i name="e_0_energy">    -23.99353113 </i>
   </energy>
  </scstep>
  <scstep>
   <time name="diag">    0.03    0.03</time>
   <time name="diis">    0.14    0.14</time>
   <time name="orth">    0.00    0.00</time>
   <time name="total">    0.32    0.32</time>
   <energy>
    <i name="e_fr_energy">    -23.99356238 </i>
    <i name="e_wo_entrp">    -23.99356238 </i>
    <i name="e_0_energy">    -23.99356238 </i>
   </energy>
  </scstep>
  <scstep>
   <time name="diag">    0.03    0.03</time>
   <time name="diis">    0.11    0.11</time>
   <time name="orth">    0.00    0.00</time>
   <time name="total">    0.30    0.30</time>
   <energy>
    <i name="e_fr_energy">    -23.99357832 </i>
    <i name="e_wo_entrp">    -23.99357832 </i>
    <i name="e_0_energy">    -23.99357832 </i>
   </energy>
  </scstep>
  <scstep>
   <time name="diag">    0.03    0.03</time>
   <time name="diis">    0.11    0.11</time>
   <time name="orth">    0.00    0.00</time>
   <time name="total">    0.30    0.30</time>
   <energy>
    <i name="e_fr_energy">    -23.99358186 </i>
    <i name="e_wo_entrp">    -23.99358186 </i>
    <i name="e_0_energy">    -23.99358186 </i>
   </energy>
  </scstep>
  <scstep>
   <time name="diag">    0.03    0.03</time>
   <time name="diis">    0.11    0.11</time>
   <time name="orth">    0.00    0.00</time>
   <time name="total">    0.30    0.30</time>
   <energy>
    <i name="e_fr_energy">    -23.99358328 </i>
    <i name="e_wo_entrp">    -23.99358328 </i>
    <i name="e_0_energy">    -23.99358328 </i>
   </energy>
  </scstep>
  <scstep>
   <time name="diag">    0.03    0.03</time>
   <time name="diis">    0.10    0.10</time>
   <time name="orth">    0.00    0.00</time>
   <time name="total">    0.26    0.26</time>
   <energy>
    <i name="alphaZ">      0.22925755 </i>
    <i name="ewald">    126.64073203 </i>
    <i name="hartreedc">   -282.86479148 </i>
    <i name="XCdc">     24.53661452 </i>
    <i name="pawpsdc">    441.27332318 </i>
    <i name="pawaedc">   -442.04567278 </i>
    <i name="eentropy">     -0.00000000 </i>
    <i name="bandstr">    -88.80480110 </i>
    <i name="atom">    197.04175453 </i>
    <i name="e_fr_energy">    -23.99358355 </i>
    <i name="e_wo_entrp">    -23.99358355 </i>
    <i name="e_0_energy">    -23.99358355 </i>
   </energy>
  </scstep>
  <structure>
   <crystal>
    <varray name="basis" >
     <v>      10.26614906       0.00000000       0.00000000 </v>
     <v>      -0.05049701      10.23834275       0.00000000 </v>
     <v>       0.24890476       0.25847105      10.05319996 </v>
    </varray>
    <i name="volume">   1056.67528873 </i>
    <varray name="rec_basis" >
     <v>       0.09740751       0.00048043      -0.00242404 </v>
     <v>       0.00000000       0.09767206      -0.00251118 </v>
     <v>       0.00000000       0.00000000       0.09947082 </v>
    </varray>
   </crystal>
   <varray name="positions" >
    <v>       0.53832608       0.40663674       0.36049066 </v>
    <v>       0.39460445       0.48053815       0.43839062 </v>
    <v>       0.55201433       0.56484504       0.44306030 </v>
    <v>       0.52831715       0.41695407       0.53916804 </v>
    <v>       0.50312362       0.46679840       0.44542759 </v>
   </varray>
  </structure>
  <varray name="forces" >
   <v>      -0.16748263       0.49454603       0.48484327 </v>
   <v>       0.90329013      -0.15347013       0.15377024 </v>
   <v>      -0.29626387      -0.61064510      -0.15777512 </v>
   <v>      -0.18137255      -0.05050032      -0.00398016 </v>
   <v>      -0.25836390       0.31991980      -0.47675324 </v>
  </varray>
  <varray name="stress" >
   <v>      -2.46450580       0.03475289      -0.12741798 </v>
   <v>       0.03475289      -1.95513954      -0.66605746 </v>
   <v>      -0.12741798      -0.66605746      -1.20400244 </v>
  </varray>
  <energy>
   <i name="e_fr_energy">    -23.99358355 </i>
   <i name="e_wo_entrp">    -23.99358355 </i>
   <i name="e_0_energy">     -0.00000000 </i>
   <i name="kinetic">      0.00058059 </i>
   <i name="lattice kinetic">      0.00000000 </i>
   <i name="nosepot">      0.00000000 </i>
   <i name="nosekinetic">      0.00000000 </i>
   <i name="total">    -23.99300296 </i>
  </energy>
  <time name="totalsc">    6.72    6.77</time>
 </calculation>
 <calculation>
  <scstep>
   <time name="dav">    0.15    0.15</time>
   <time name="total">    0.30    0.30</time>
   <energy>
    <i name="alphaZ">      0.22925755 </i>
    <i name="ewald">    126.95413233 </i>
    <i name="hartreedc">   -283.05225143 </i>
    <i name="XCdc">     24.54605045 </i>
    <i name="pawpsdc">    441.27638655 </i>
    <i name="pawaedc">   -442.04873647 </i>
    <i name="eentropy">     -0.00000000 </i>
    <i name="bandstr">    -88.94470045 </i>
    <i name="atom">    197.04175453 </i>
    <i name="e_fr_energy">    -23.99810693 </i>
    <i name="e_wo_entrp">    -23.99810693 </i>
    <i name="e_0_energy">    -23.99810693 </i>
   </energy>
  </scstep>
  <scstep>
   <time name="diag">    0.03    0.03</time>
   <time name="diis">    0.14    0.14</time>
   <time name="orth">    0.00    0.00</time>
   <time name="total">    0.33    0.33</time>
   <energy>
    <i name="e_fr_energy">    -23.99807201 </i>
    <i name="e_wo_entrp">    -23.99807201 </i>
    <i name="e_0_energy">    -23.99807201 </i>
   </energy>
  </scstep>
  <scstep>
   <time name="diag">    0.03    0.03</time>
   <time name="diis">    0.14    0.14</time>
   <time name="orth">    0.00    0.00</time>
   <time name="total">    0.33    0.33</time>
   <energy>
    <i name="e_fr_energy">    -23.99807058 </i>
    <i name="e_wo_entrp">    -23.99807058 </i>
    <i name="e_0_energy">    -23.99807058 </i>
   </energy>
  </scstep>
  <scstep>
   <time name="diag">    0.03    0.03</time>
   <time name="diis">    0.11    0.11</time>
   <time name="orth">    0.00    0.00</time>
   <time name="total">    0.28    0.28</time>
   <energy>
    <i name="alphaZ">      0.22925755 </i>
    <i name="ewald">    126.95413233 </i>
    <i name="hartreedc">   -283.14588983 </i>
    <i name="XCdc">     24.55129565 </i>
    <i name="pawpsdc">    442.80890777 </i>
    <i name="pawaedc">   -443.58234409 </i>
    <i name="eentropy">     -0.00000000 </i>
    <i name="bandstr">    -88.85518366 </i>
    <i name="atom">    197.04175453 </i>
    <i name="e_fr_energy">    -23.99806974 </i>
    <i name="e_wo_entrp">    -23.99806974 </i>
    <i name="e_0_energy">    -23.99806974 </i>
   </energy>
  </scstep>
  <structure>
   <crystal>
    <varray name="basis" >
     <v>      10.26614906       0.00000000       0.00000000 </v>
     <v>      -0.05049701      10.23834275       0.00000000 </v>
     <v>       0.24890476       0.25847105      10.05319996 </v>
    </varray>
    <i name="volume">   1056.67528873 </i>
    <varray name="rec_basis" >
     <v>       0.09740751       0.00048043      -0.00242404 </v>
     <v>       0.00000000       0.09767206      -0.00251118 </v>
     <v>       0.00000000       0.00000000       0.09947082 </v>
    </varray>
   </crystal>
   <varray name="positions" >
    <v>       0.53828407       0.40675115       0.36060661 </v>
    <v>       0.39481523       0.48050118       0.43842781 </v>
    <v>       0.55194494       0.56470174       0.44302246 </v>
    <v>       0.52827548       0.41694206       0.53916717 </v>
    <v>       0.50311881       0.46680489       0.44541806 </v>
   </varray>
  </structure>
  <varray name="forces" >
   <v>      -0.15238343       0.46324330       0.44731127 </v>
   <v>       0.83943643      -0.14515743       0.14845283 </v>
   <v>      -0.27403797      -0.56651858      -0.15510607 </v>
   <v>      -0.17772484      -0.04980069      -0.00362598 </v>
   <v>      -0.23526816       0.29786175      -0.43656111 </v>
  </varray>
  <varray name="stress" >
   <v>      -2.33995554       0.03754771      -0.13488889 </v>
   <v>       0.03754770      -1.86649717      -0.62686355 </v>
   <v>      -0.13488889      -0.62686355      -1.16446926 </v>
  </varray>
  <energy>
   <i name="e_fr_energy">    -23.99806974 </i>
   <i name="e_wo_entrp">    -23.99806974 </i>
   <i name="e_0_energy">     -0.00000000 </i>
   <i name="kinetic">      0.00498557 </i>
   <i name="lattice kinetic">      0.00000000 </i>
   <i name="nosepot">      0.00000000 </i>
   <i name="nosekinetic">      0.00000000 </i>
   <i name="total">    -23.99308417 </i>
  </energy>
  <time name="totalsc">    1.81    1.81</time>
 </calculation>
 <calculation>
  <scstep>
   <time name="dav">    0.15    0.15</time>
   <time name="total">    0.31    0.31</time>
   <energy>
    <i name="alphaZ">      0.22925755 </i>
    <i name="ewald">    127.56158788 </i>
    <i name="hartreedc">   -283.64343553 </i>
    <i name="XCdc">     24.57799014 </i>
    <i name="pawpsdc">    446.44058065 </i>
    <i name="pawaedc">   -447.21554948 </i>
    <i name="eentropy">     -0.00000000 </i>
    <i name="bandstr">    -88.99802483 </i>
    <i name="atom">    197.04175453 </i>
    <i name="e_fr_energy">    -24.00583908 </i>
    <i name="e_wo_entrp">    -24.00583908 </i>
    <i name="e_0_energy">    -24.00583908 </i>
   </energy>
  </scstep>
  <scstep>
   <time name="diag">    0.03    0.03</time>
   <time name="diis">    0.14    0.14</time>
   <time name="orth">    0.00    0.00</time>
   <time name="total">    0.34    0.34</time>
   <energy>
    <i name="e_fr_energy">    -24.00584023 </i>
    <i name="e_wo_entrp">    -24.00584023 </i>
    <i name="e_0_energy">    -24.00584023 </i>
   </energy>
  </scstep>
  <scstep>
   <time name="diag">    0.03    0.03</time>
   <time name="diis">    0.14    0.14</time>
   <time name="orth">    0.00    0.00</time>
   <time name="total">    0.33    0.33</time>
   <energy>
    <i name="e_fr_energy">    -24.00583961 </i>
    <i name="e_wo_entrp">    -24.00583961 </i>
    <i name="e_0_energy">    -24.00583961 </i>
   </energy>
  </scstep>
  <scstep>
   <time name="diag">    0.03    0.03</time>
   <time name="diis">    0.11    0.11</time>
   <time name="orth">    0.00    0.00</time>
   <time name="total">    0.28    0.28</time>
   <energy>
    <i name="alphaZ">      0.22925755 </i>
    <i name="ewald">    127.56158788 </i>
    <i name="hartreedc">   -283.68357786 </i>
    <i name="XCdc">     24.57979925 </i>
    <i name="pawpsdc">    446.55518439 </i>
    <i name="pawaedc">   -447.33061956 </i>
    <i name="eentropy">     -0.00000000 </i>
    <i name="bandstr">    -88.95922635 </i>
    <i name="atom">    197.04175453 </i>
    <i name="e_fr_energy">    -24.00584016 </i>
    <i name="e_wo_entrp">    -24.00584016 </i>
    <i name="e_0_energy">    -24.00584016 </i>
   </energy>
  </scstep>
  <structure>
   <crystal>
    <varray name="basis" >
     <v>      10.26614906       0.00000000       0.00000000 </v>
     <v>      -0.05049701      10.23834275       0.00000000 </v>
     <v>       0.24890476       0.25847105      10.05319996 </v>
    </varray>
    <i name="volume">   1056.67528873 </i>
    <varray name="rec_basis" >
     <v>       0.09740751       0.00048043      -0.00242404 </v>
     <v>       0.00000000       0.09767206      -0.00251118 </v>
     <v>       0.00000000       0.00000000       0.09947082 </v>
    </varray>
   </crystal>
   <varray name="positions" >
    <v>       0.53820417       0.40697199       0.36082989 </v>
    <v>       0.39522220       0.48042913       0.43850062 </v>
    <v>       0.55181142       0.56442592       0.44294739 </v>
    <v>       0.52819201       0.41691835       0.53916541 </v>
    <v>       0.50310965       0.46681744       0.44539981 </v>
   </varray>
  </structure>
  <varray name="forces" >
   <v>      -0.12449392       0.40495459       0.37745410 </v>
   <v>       0.71814054      -0.12926925       0.13812075 </v>
   <v>      -0.23289537      -0.48457912      -0.14998240 </v>
   <v>      -0.17217758      -0.04584854      -0.00790023 </v>
   <v>      -0.18903059       0.25462593      -0.35778045 </v>
  </varray>
  <varray name="stress" >
   <v>      -2.07485526       0.04334712      -0.15077780 </v>
   <v>       0.04334712      -1.67444417      -0.54945453 </v>
   <v>      -0.15077780      -0.54945453      -1.06953827 </v>
  </varray>
  <energy>
   <i name="e_fr_energy">    -24.00584016 </i>
   <i name="e_wo_entrp">    -24.00584016 </i>
   <i name="e_0_energy">     -0.00000000 </i>
   <i name="kinetic">      0.01261704 </i>
   <i name="lattice kinetic">      0.00000000 </i>
   <i name="nosepot">      0.00000000 </i>
   <i name="nosekinetic">      0.00000000 </i>
   <i name="total">    -23.99322312 </i>
  </energy>
  <time name="totalsc">    1.81    1.81</time>
 </calculation>
 <calculation>
  <scstep>
   <time name="dav">    0.14    0.14</time>
   <time name="total">    0.29    0.29</time>
   <energy>
    <i name="alphaZ">      0.22925755 </i>
    <i name="ewald">    128.42693480 </i>
    <i name="hartreedc">   -284.54678570 </i>
    <i name="XCdc">     24.62450207 </i>
    <i name="pawpsdc">    451.38034930 </i>
    <i name="pawaedc">   -452.15981533 </i>
    <i name="eentropy">     -0.00000000 </i>
    <i name="bandstr">    -89.01104904 </i>
    <i name="atom">    197.04175453 </i>
    <i name="e_fr_energy">    -24.01485181 </i>
    <i name="e_wo_entrp">    -24.01485181 </i>
    <i name="e_0_energy">    -24.01485181 </i>
   </energy>
  </scstep>
  <scstep>
   <time name="diag">    0.03    0.03</time>
   <time name="diis">    0.14    0.14</time>
   <time name="orth">    0.00    0.00</time>
   <time name="total">    0.33    0.33</time>
   <energy>
    <i name="e_fr_energy">    -24.01479635 </i>
    <i name="e_wo_entrp">    -24.01479635 </i>
    <i name="e_0_energy">    -24.01479635 </i>
   </energy>
  </scstep>
  <scstep>
   <time name="diag">    0.03    0.03</time>
   <time name="diis">    0.14    0.14</time>
   <time name="orth">    0.00    0.00</time>
   <time name="total">    0.33    0.33</time>
   <energy>
    <i name="e_fr_energy">    -24.01479662 </i>
    <i name="e_wo_entrp">    -24.01479662 </i>
    <i name="e_0_energy">    -24.01479662 </i>
   </energy>
  </scstep>
  <scstep>
   <time name="diag">    0.03    0.03</time>
   <time name="diis">    0.14    0.14</time>
   <time name="orth">    0.00    0.00</time>
   <time name="total">    0.30    0.30</time>
   <energy>
    <i name="alphaZ">      0.22925755 </i>
    <i name="ewald">    128.42693480 </i>
    <i name="hartreedc">   -284.45347824 </i>
    <i name="XCdc">     24.62036897 </i>
    <i name="pawpsdc">    451.34231135 </i>
    <i name="pawaedc">   -452.12062630 </i>
    <i name="eentropy">     -0.00000000 </i>
    <i name="bandstr">    -89.10132013 </i>
    <i name="atom">    197.04175453 </i>
    <i name="e_fr_energy">    -24.01479747 </i>
    <i name="e_wo_entrp">    -24.01479747 </i>
    <i name="e_0_energy">    -24.01479747 </i>
   </energy>
  </scstep>
  <structure>
   <crystal>
    <varray name="basis" >
     <v>      10.26614906       0.00000000       0.00000000 </v>
     <v>      -0.05049701      10.23834275       0.00000000 </v>
     <v>       0.24890476       0.25847105      10.05319996 </v>
    </varray>
    <i name="volume">   1056.67528873 </i>
    <varray name="rec_basis" >
     <v>       0.09740751       0.00048043      -0.00242404 </v>
     <v>       0.00000000       0.09767206      -0.00251118 </v>
     <v>       0.00000000       0.00000000       0.09947082 </v>
    </varray>
   </crystal>
   <varray name="positions" >
    <v>       0.53809330       0.40728595       0.36114374 </v>
    <v>       0.39579696       0.48032579       0.43860656 </v>
    <v>       0.55162349       0.56403684       0.44283634 </v>
    <v>       0.52806809       0.41688389       0.53916176 </v>
    <v>       0.50309699       0.46683516       0.44537441 </v>
   </varray>
  </structure>
  <varray name="forces" >
   <v>      -0.08373913       0.31972321       0.27547809 </v>
   <v>       0.53988696      -0.10595583       0.12302946 </v>
   <v>      -0.17274644      -0.36488423      -0.14235330 </v>
   <v>      -0.16298025      -0.04158951      -0.01112880 </v>
   <v>      -0.12071576       0.19260560      -0.24496515 </v>
  </varray>
  <varray name="stress" >
   <v>      -1.70309556       0.05098584      -0.17259698 </v>
   <v>       0.05098584      -1.40844800      -0.43975239 </v>
   <v>      -0.17259699      -0.43975239      -0.94096106 </v>
  </varray>
  <energy>
   <i name="e_fr_energy">    -24.01479747 </i>
   <i name="e_wo_entrp">    -24.01479747 </i>
   <i name="e_0_energy">     -0.00000000 </i>
   <i name="kinetic">      0.02141698 </i>
   <i name="lattice kinetic">      0.00000000 </i>
   <i name="nosepot">      0.00000000 </i>
   <i name="nosekinetic">      0.00000000 </i>
   <i name="total">    -23.99338049 </i>
  </energy>
  <time name="totalsc">    1.79    1.79</time>
 </calculation>
 <calculation>
  <scstep>
   <time name="dav">    0.14    0.14</time>
   <time name="total">    0.28    0.28</time>
   <energy>
    <i name="alphaZ">      0.22925755 </i>
    <i name="ewald">    129.49466207 </i>
    <i name="hartreedc">   -285.39776590 </i>
    <i name="XCdc">     24.67026498 </i>
    <i name="pawpsdc">    457.53397490 </i>
    <i name="pawaedc">   -458.31580464 </i>
    <i name="eentropy">     -0.00000000 </i>
    <i name="bandstr">    -89.27876625 </i>
    <i name="atom">    197.04175453 </i>
    <i name="e_fr_energy">    -24.02242275 </i>
    <i name="e_wo_entrp">    -24.02242275 </i>
    <i name="e_0_energy">    -24.02242275 </i>
   </energy>
  </scstep>
  <scstep>
   <time name="diag">    0.03    0.03</time>
   <time name="diis">    0.14    0.14</time>
   <time name="orth">    0.00    0.00</time>
   <time name="total">    0.32    0.32</time>
   <energy>
    <i name="e_fr_energy">    -24.02242662 </i>
    <i name="e_wo_entrp">    -24.02242662 </i>
    <i name="e_0_energy">    -24.02242662 </i>
   </energy>
  </scstep>
  <scstep>
   <time name="diag">    0.03    0.03</time>
   <time name="diis">    0.12    0.12</time>
   <time name="orth">    0.00    0.00</time>
   <time name="total">    0.29    0.29</time>
   <energy>
    <i name="e_fr_energy">    -24.02242685 </i>
    <i name="e_wo_entrp">    -24.02242685 </i>
    <i name="e_0_energy">    -24.02242685 </i>
   </energy>
  </scstep>
  <scstep>
   <time name="diag">    0.03    0.03</time>
   <time name="diis">    0.14    0.14</time>
   <time name="orth">    0.00    0.00</time>
   <time name="total">    0.32    0.32</time>
   <energy>
    <i name="e_fr_energy">    -24.02243131 </i>
    <i name="e_wo_entrp">    -24.02243131 </i>
    <i name="e_0_energy">    -24.02243131 </i>
   </energy>
  </scstep>
  <scstep>
   <time name="diag">    0.03    0.03</time>
   <time name="diis">    0.12    0.12</time>
   <time name="orth">    0.00    0.00</time>
   <time name="total">    0.27    0.27</time>
   <energy>
    <i name="alphaZ">      0.22925755 </i>
    <i name="ewald">    129.49466207 </i>
    <i name="hartreedc">   -285.40661608 </i>
    <i name="XCdc">     24.67050572 </i>
    <i name="pawpsdc">    457.60740061 </i>
    <i name="pawaedc">   -458.38947528 </i>
    <i name="eentropy">     -0.00000000 </i>
    <i name="bandstr">    -89.26992131 </i>
    <i name="atom">    197.04175453 </i>
    <i name="e_fr_energy">    -24.02243219 </i>
    <i name="e_wo_entrp">    -24.02243219 </i>
    <i name="e_0_energy">    -24.02243219 </i>
   </energy>
  </scstep>
  <structure>
   <crystal>
    <varray name="basis" >
     <v>      10.26614906       0.00000000       0.00000000 </v>
     <v>      -0.05049701      10.23834275       0.00000000 </v>
     <v>       0.24890476       0.25847105      10.05319996 </v>
    </varray>
    <i name="volume">   1056.67528873 </i>
    <varray name="rec_basis" >
     <v>       0.09740751       0.00048043      -0.00242404 </v>
     <v>       0.00000000       0.09767206      -0.00251118 </v>
     <v>       0.00000000       0.00000000       0.09947082 </v>
    </varray>
   </crystal>
   <varray name="positions" >
    <v>       0.53796151       0.40767358       0.36152368 </v>
    <v>       0.39649773       0.48019673       0.43874203 </v>
    <v>       0.55139539       0.56356266       0.44269113 </v>
    <v>       0.52790590       0.41683970       0.53915544 </v>
    <v>       0.50308211       0.46685679       0.44534411 </v>
   </varray>
  </structure>
  <varray name="forces" >
   <v>      -0.03237591       0.21162187       0.14644348 </v>
   <v>       0.31227307      -0.07623000       0.10369602 </v>
   <v>      -0.09665794      -0.21324218      -0.13239299 </v>
   <v>      -0.15013109      -0.03721481      -0.01294763 </v>
   <v>      -0.03352343       0.11491630      -0.10458503 </v>
  </varray>
  <varray name="stress" >
   <v>      -1.24609815       0.05985146      -0.19875387 </v>
   <v>       0.05985146      -1.08641926      -0.30366287 </v>
   <v>      -0.19875387      -0.30366287      -0.78890661 </v>
  </varray>
  <energy>
   <i name="e_fr_energy">    -24.02243219 </i>
   <i name="e_wo_entrp">    -24.02243219 </i>
   <i name="e_0_energy">     -0.00000000 </i>
   <i name="kinetic">      0.02890711 </i>
   <i name="lattice kinetic">      0.00000000 </i>
   <i name="nosepot">      0.00000000 </i>
   <i name="nosekinetic">      0.00000000 </i>
   <i name="total">    -23.99352508 </i>
  </energy>
  <time name="totalsc">    2.02    2.02</time>
 </calculation>
 <calculation>
  <scstep>
   <time name="dav">    0.15    0.15</time>
   <time name="total">    0.30    0.30</time>
   <energy>
    <i name="alphaZ">      0.22925755 </i>
    <i name="ewald">    130.69052256 </i>
    <i name="hartreedc">   -286.42184958 </i>
    <i name="XCdc">     24.72442732 </i>
    <i name="pawpsdc">    464.82484552 </i>
    <i name="pawaedc">   -465.61072636 </i>
    <i name="eentropy">     -0.00000000 </i>
    <i name="bandstr">    -89.50476146 </i>
    <i name="atom">    197.04175453 </i>
    <i name="e_fr_energy">    -24.02652991 </i>
    <i name="e_wo_entrp">    -24.02652991 </i>
    <i name="e_0_energy">    -24.02652991 </i>
   </energy>
  </scstep>
  <scstep>
   <time name="diag">    0.03    0.03</time>
   <time name="diis">    0.14    0.14</time>
   <time name="orth">    0.00    0.00</time>
   <time name="total">    0.32    0.32</time>
   <energy>
    <i name="e_fr_energy">    -24.02652880 </i>
    <i name="e_wo_entrp">    -24.02652880 </i>
    <i name="e_0_energy">    -24.02652880 </i>
   </energy>
  </scstep>
  <scstep>
   <time name="diag">    0.03    0.03</time>
   <time name="diis">    0.14    0.14</time>
   <time name="orth">    0.00    0.00</time>
   <time name="total">    0.32    0.32</time>
   <energy>
    <i name="e_fr_energy">    -24.02653230 </i>
    <i name="e_wo_entrp">    -24.02653230 </i>
    <i name="e_0_energy">    -24.02653230 </i>
   </energy>
  </scstep>
  <scstep>
   <time name="diag">    0.03    0.03</time>
   <time name="diis">    0.12    0.12</time>
   <time name="orth">    0.00    0.00</time>
   <time name="total">    0.27    0.27</time>
   <energy>
    <i name="alphaZ">      0.22925755 </i>
    <i name="ewald">    130.69052256 </i>
    <i name="hartreedc">   -286.45725702 </i>
    <i name="XCdc">     24.72606379 </i>
    <i name="pawpsdc">    464.71060403 </i>
    <i name="pawaedc">   -465.49684624 </i>
    <i name="eentropy">     -0.00000000 </i>
    <i name="bandstr">    -89.47063121 </i>
    <i name="atom">    197.04175453 </i>
    <i name="e_fr_energy">    -24.02653200 </i>
    <i name="e_wo_entrp">    -24.02653200 </i>
    <i name="e_0_energy">    -24.02653200 </i>
   </energy>
  </scstep>
  <structure>
   <crystal>
    <varray name="basis" >
     <v>      10.26614906       0.00000000       0.00000000 </v>
     <v>      -0.05049701      10.23834275       0.00000000 </v>
     <v>       0.24890476       0.25847105      10.05319996 </v>
    </varray>
    <i name="volume">   1056.67528873 </i>
    <varray name="rec_basis" >
     <v>       0.09740751       0.00048043      -0.00242404 </v>
     <v>       0.00000000       0.09767206      -0.00251118 </v>
     <v>       0.00000000       0.00000000       0.09947082 </v>
    </varray>
   </crystal>
   <varray name="positions" >
    <v>       0.53782152       0.40811017       0.36193875 </v>
    <v>       0.39727119       0.48004910       0.43890237 </v>
    <v>       0.55114512       0.56303905       0.44251416 </v>
    <v>       0.52770847       0.41678682       0.53914601 </v>
    <v>       0.50306664       0.46688073       0.44531172 </v>
   </varray>
  </structure>
  <varray name="forces" >
   <v>       0.02550558       0.08863973       0.00038810 </v>
   <v>       0.05045738      -0.04193021       0.08107512 </v>
   <v>      -0.01050943      -0.04137888      -0.12028943 </v>
   <v>      -0.13408685      -0.03219195      -0.01446191 </v>
   <v>       0.06865010       0.02683182       0.05363491 </v>
  </varray>
  <varray name="stress" >
   <v>      -0.71912311       0.06879340      -0.22640046 </v>
   <v>       0.06879340      -0.71532342      -0.15074677 </v>
   <v>      -0.22640046      -0.15074677      -0.60841889 </v>
  </varray>
  <energy>
   <i name="e_fr_energy">    -24.02653200 </i>
   <i name="e_wo_entrp">    -24.02653200 </i>
   <i name="e_0_energy">     -0.00000000 </i>
   <i name="kinetic">      0.03290418 </i>
   <i name="lattice kinetic">      0.00000000 </i>
   <i name="nosepot">      0.00000000 </i>
   <i name="nosekinetic">      0.00000000 </i>
   <i name="total">    -23.99362782 </i>
  </energy>
  <time name="totalsc">    1.76    1.76</time>
 </calculation>
 <calculation>
  <scstep>
   <time name="dav">    0.14    0.14</time>
   <time name="total">    0.29    0.29</time>
   <energy>
    <i name="alphaZ">      0.22925755 </i>
    <i name="ewald">    131.92540908 </i>
    <i name="hartreedc">   -287.53261827 </i>
    <i name="XCdc">     24.78300567 </i>
    <i name="pawpsdc">    472.27953313 </i>
    <i name="pawaedc">   -473.07008162 </i>
    <i name="eentropy">     -0.00000000 </i>
    <i name="bandstr">    -89.68211420 </i>
    <i name="atom">    197.04175453 </i>
    <i name="e_fr_energy">    -24.02585413 </i>
    <i name="e_wo_entrp">    -24.02585413 </i>
    <i name="e_0_energy">    -24.02585413 </i>
   </energy>
  </scstep>
  <scstep>
   <time name="diag">    0.03    0.03</time>
   <time name="diis">    0.14    0.14</time>
   <time name="orth">    0.00    0.00</time>
   <time name="total">    0.33    0.33</time>
   <energy>
    <i name="e_fr_energy">    -24.02585899 </i>
    <i name="e_wo_entrp">    -24.02585899 </i>
    <i name="e_0_energy">    -24.02585899 </i>
   </energy>
  </scstep>
  <scstep>
   <time name="diag">    0.03    0.03</time>
   <time name="diis">    0.11    0.11</time>
   <time name="orth">    0.00    0.00</time>
   <time name="total">    0.30    0.30</time>
   <energy>
    <i name="e_fr_energy">    -24.02586045 </i>
    <i name="e_wo_entrp">    -24.02586045 </i>
    <i name="e_0_energy">    -24.02586045 </i>
   </energy>
  </scstep>
  <scstep>
   <time name="diag">    0.03    0.03</time>
   <time name="diis">    0.11    0.11</time>
   <time name="orth">    0.00    0.00</time>
   <time name="total">    0.30    0.30</time>
   <energy>
    <i name="e_fr_energy">    -24.02586328 </i>
    <i name="e_wo_entrp">    -24.02586328 </i>
    <i name="e_0_energy">    -24.02586328 </i>
   </energy>
  </scstep>
  <scstep>
   <time name="diag">    0.03    0.03</time>
   <time name="diis">    0.11    0.11</time>
   <time name="orth">    0.00    0.00</time>
   <time name="total">    0.30    0.30</time>
   <energy>
    <i name="e_fr_energy">    -24.02586745 </i>
    <i name="e_wo_entrp">    -24.02586745 </i>
    <i name="e_0_energy">    -24.02586745 </i>
   </energy>
  </scstep>
  <scstep>
   <time name="diag">    0.03    0.03</time>
   <time name="diis">    0.10    0.10</time>
   <time name="orth">    0.00    0.00</time>
   <time name="total">    0.28    0.28</time>
   <energy>
    <i name="e_fr_energy">    -24.02586871 </i>
    <i name="e_wo_entrp">    -24.02586871 </i>
    <i name="e_0_energy">    -24.02586871 </i>
   </energy>
  </scstep>
  <scstep>
   <time name="diag">    0.03    0.03</time>
   <time name="diis">    0.11    0.11</time>
   <time name="orth">    0.00    0.00</time>
   <time name="total">    0.28    0.28</time>
   <energy>
    <i name="alphaZ">      0.22925755 </i>
    <i name="ewald">    131.92540908 </i>
    <i name="hartreedc">   -287.53812603 </i>
    <i name="XCdc">     24.78334139 </i>
    <i name="pawpsdc">    472.18482374 </i>
    <i name="pawaedc">   -472.97537912 </i>
    <i name="eentropy">     -0.00000000 </i>
    <i name="bandstr">    -89.67695056 </i>
    <i name="atom">    197.04175453 </i>
    <i name="e_fr_energy">    -24.02586941 </i>
    <i name="e_wo_entrp">    -24.02586941 </i>
    <i name="e_0_energy">    -24.02586941 </i>
   </energy>
  </scstep>
  <structure>
   <crystal>
    <varray name="basis" >
     <v>      10.26614906       0.00000000       0.00000000 </v>
     <v>      -0.05049701      10.23834275       0.00000000 </v>
     <v>       0.24890476       0.25847105      10.05319996 </v>
    </varray>
    <i name="volume">   1056.67528873 </i>
    <varray name="rec_basis" >
     <v>       0.09740751       0.00048043      -0.00242404 </v>
     <v>       0.00000000       0.09767206      -0.00251118 </v>
     <v>       0.00000000       0.00000000       0.09947082 </v>
    </varray>
   </crystal>
   <varray name="positions" >
    <v>       0.53768761       0.40856765       0.36235391 </v>
    <v>       0.39805598       0.47989109       0.43908216 </v>
    <v>       0.55089303       0.56250641       0.44230831 </v>
    <v>       0.52747959       0.41672645       0.53913311 </v>
    <v>       0.50305250       0.46690517       0.44528040 </v>
   </varray>
  </structure>
  <varray name="forces" >
   <v>       0.08522445      -0.04063886      -0.15185471 </v>
   <v>      -0.22652045      -0.00546888       0.05641460 </v>
   <v>       0.07911923       0.13825250      -0.10628194 </v>
   <v>      -0.11525714      -0.02689238      -0.01514592 </v>
   <v>       0.17766936      -0.06521352       0.21734547 </v>
  </varray>
  <varray name="stress" >
   <v>      -0.16290413       0.07672220      -0.25202584 </v>
   <v>       0.07672220      -0.32411773       0.00754247 </v>
   <v>      -0.25202585       0.00754247      -0.41325914 </v>
  </varray>
  <energy>
   <i name="e_fr_energy">    -24.02586941 </i>
   <i name="e_wo_entrp">    -24.02586941 </i>
   <i name="e_0_energy">     -0.00000000 </i>
   <i name="kinetic">      0.03223081 </i>
   <i name="lattice kinetic">      0.00000000 </i>
   <i name="nosepot">      0.00000000 </i>
   <i name="nosekinetic">      0.00000000 </i>
   <i name="total">    -23.99363860 </i>
  </energy>
  <time name="totalsc">    2.63    2.63</time>
 </calculation>
 <calculation>
  <scstep>
   <time name="dav">    0.14    0.14</time>
   <time name="total">    0.29    0.29</time>
   <energy>
    <i name="alphaZ">      0.22925755 </i>
    <i name="ewald">    133.10069690 </i>
    <i name="hartreedc">   -288.59007455 </i>
    <i name="XCdc">     24.83907223 </i>
    <i name="pawpsdc">    479.51762191 </i>
    <i name="pawaedc">   -480.31270737 </i>
    <i name="eentropy">     -0.00000000 </i>
    <i name="bandstr">    -89.84623184 </i>
    <i name="atom">    197.04175453 </i>
    <i name="e_fr_energy">    -24.02061063 </i>
    <i name="e_wo_entrp">    -24.02061063 </i>
    <i name="e_0_energy">    -24.02061063 </i>
   </energy>
  </scstep>
  <scstep>
   <time name="diag">    0.03    0.03</time>
   <time name="diis">    0.14    0.14</time>
   <time name="orth">    0.00    0.00</time>
   <time name="total">    0.33    0.33</time>
   <energy>
    <i name="e_fr_energy">    -24.02061772 </i>
    <i name="e_wo_entrp">    -24.02061772 </i>
    <i name="e_0_energy">    -24.02061772 </i>
   </energy>
  </scstep>
  <scstep>
   <time name="diag">    0.03    0.03</time>
   <time name="diis">    0.14    0.14</time>
   <time name="orth">    0.00    0.00</time>
   <time name="total">    0.33    0.33</time>
   <energy>
    <i name="e_fr_energy">    -24.02062852 </i>
    <i name="e_wo_entrp">    -24.02062852 </i>
    <i name="e_0_energy">    -24.02062852 </i>
   </energy>
  </scstep>
  <scstep>
   <time name="diag">    0.03    0.03</time>
   <time name="diis">    0.12    0.12</time>
   <time name="orth">    0.00    0.00</time>
   <time name="total">    0.30    0.30</time>
   <energy>
    <i name="e_fr_energy">    -24.02063437 </i>
    <i name="e_wo_entrp">    -24.02063437 </i>
    <i name="e_0_energy">    -24.02063437 </i>
   </energy>
  </scstep>
  <scstep>
   <time name="diag">    0.03    0.03</time>
   <time name="diis">    0.12    0.12</time>
   <time name="orth">    0.00    0.00</time>
   <time name="total">    0.30    0.30</time>
   <energy>
    <i name="e_fr_energy">    -24.02066137 </i>
    <i name="e_wo_entrp">    -24.02066137 </i>
    <i name="e_0_energy">    -24.02066137 </i>
   </energy>
  </scstep>
  <scstep>
   <time name="diag">    0.03    0.03</time>
   <time name="diis">    0.12    0.12</time>
   <time name="orth">    0.00    0.00</time>
   <time name="total">    0.28    0.28</time>
   <energy>
    <i name="alphaZ">      0.22925755 </i>
    <i name="ewald">    133.10069690 </i>
    <i name="hartreedc">   -288.56667978 </i>
    <i name="XCdc">     24.83788282 </i>
    <i name="pawpsdc">    479.35045730 </i>
    <i name="pawaedc">   -480.14525044 </i>
    <i name="eentropy">     -0.00000000 </i>
    <i name="bandstr">    -89.86878012 </i>
    <i name="atom">    197.04175453 </i>
    <i name="e_fr_energy">    -24.02066124 </i>
    <i name="e_wo_entrp">    -24.02066124 </i>
    <i name="e_0_energy">    -24.02066124 </i>
   </energy>
  </scstep>
  <structure>
   <crystal>
    <varray name="basis" >
     <v>      10.26614906       0.00000000       0.00000000 </v>
     <v>      -0.05049701      10.23834275       0.00000000 </v>
     <v>       0.24890476       0.25847105      10.05319996 </v>
    </varray>
    <i name="volume">   1056.67528873 </i>
    <varray name="rec_basis" >
     <v>       0.09740751       0.00048043      -0.00242404 </v>
     <v>       0.00000000       0.09767206      -0.00251118 </v>
     <v>       0.00000000       0.00000000       0.09947082 </v>
    </varray>
   </crystal>
   <varray name="positions" >
    <v>       0.53757457       0.40901647       0.36273263 </v>
    <v>       0.39878721       0.47973145       0.43927548 </v>
    <v>       0.55066030       0.56200699       0.44207696 </v>
    <v>       0.52722367       0.41665983       0.53911656 </v>
    <v>       0.50304171       0.46692822       0.44525342 </v>
   </varray>
  </structure>
  <varray name="forces" >
   <v>       0.14231094      -0.16790545      -0.29981231 </v>
   <v>      -0.49859136       0.03081676       0.03085631 </v>
   <v>       0.16616719       0.31364627      -0.09061996 </v>
   <v>      -0.09294622      -0.02300151      -0.01187704 </v>
   <v>       0.28320552      -0.15347604       0.37195041 </v>
  </varray>
  <varray name="stress" >
   <v>       0.36619632       0.08235432      -0.27147775 </v>
   <v>       0.08235432       0.04472683       0.15876941 </v>
   <v>      -0.27147775       0.15876940      -0.23019784 </v>
  </varray>
  <energy>
   <i name="e_fr_energy">    -24.02066124 </i>
   <i name="e_wo_entrp">    -24.02066124 </i>
   <i name="e_0_energy">     -0.00000000 </i>
   <i name="kinetic">      0.02712729 </i>
   <i name="lattice kinetic">      0.00000000 </i>
   <i name="nosepot">      0.00000000 </i>
   <i name="nosekinetic">      0.00000000 </i>
   <i name="total">    -23.99353394 </i>
  </energy>
  <time name="totalsc">    2.38    2.38</time>
 </calculation>
 <calculation>
  <scstep>
   <time name="dav">    0.14    0.14</time>
   <time name="total">    0.29    0.29</time>
   <energy>
    <i name="alphaZ">      0.22925755 </i>
    <i name="ewald">    134.11451809 </i>
    <i name="hartreedc">   -289.44099254 </i>
    <i name="XCdc">     24.88426622 </i>
    <i name="pawpsdc">    485.71074157 </i>
    <i name="pawaedc">   -486.50913313 </i>
    <i name="eentropy">     -0.00000000 </i>
    <i name="bandstr">    -90.04309711 </i>
    <i name="atom">    197.04175453 </i>
    <i name="e_fr_energy">    -24.01268480 </i>
    <i name="e_wo_entrp">    -24.01268480 </i>
    <i name="e_0_energy">    -24.01268480 </i>
   </energy>
  </scstep>
  <scstep>
   <time name="diag">    0.03    0.03</time>
   <time name="diis">    0.15    0.15</time>
   <time name="orth">    0.00    0.00</time>
   <time name="total">    0.33    0.33</time>
   <energy>
    <i name="e_fr_energy">    -24.01268767 </i>
    <i name="e_wo_entrp">    -24.01268767 </i>
    <i name="e_0_energy">    -24.01268767 </i>
   </energy>
  </scstep>
  <scstep>
   <time name="diag">    0.03    0.03</time>
   <time name="diis">    0.11    0.11</time>
   <time name="orth">    0.00    0.00</time>
   <time name="total">    0.29    0.29</time>
   <energy>
    <i name="e_fr_energy">    -24.01268909 </i>
    <i name="e_wo_entrp">    -24.01268909 </i>
    <i name="e_0_energy">    -24.01268909 </i>
   </energy>
  </scstep>
  <scstep>
   <time name="diag">    0.03    0.03</time>
   <time name="diis">    0.11    0.11</time>
   <time name="orth">    0.00    0.00</time>
   <time name="total">    0.29    0.29</time>
   <energy>
    <i name="e_fr_energy">    -24.01269032 </i>
    <i name="e_wo_entrp">    -24.01269032 </i>
    <i name="e_0_energy">    -24.01269032 </i>
   </energy>
  </scstep>
  <scstep>
   <time name="diag">    0.03    0.03</time>
   <time name="diis">    0.11    0.11</time>
   <time name="orth">    0.00    0.00</time>
   <time name="total">    0.27    0.27</time>
   <energy>
    <i name="alphaZ">      0.22925755 </i>
    <i name="ewald">    134.11451809 </i>
    <i name="hartreedc">   -289.44898141 </i>
    <i name="XCdc">     24.88456460 </i>
    <i name="pawpsdc">    485.76959314 </i>
    <i name="pawaedc">   -486.56801847 </i>
    <i name="eentropy">     -0.00000000 </i>
    <i name="bandstr">    -90.03537922 </i>
    <i name="atom">    197.04175453 </i>
    <i name="e_fr_energy">    -24.01269118 </i>
    <i name="e_wo_entrp">    -24.01269118 </i>
    <i name="e_0_energy">    -24.01269118 </i>
   </energy>
  </scstep>
  <structure>
   <crystal>
    <varray name="basis" >
     <v>      10.26614906       0.00000000       0.00000000 </v>
     <v>      -0.05049701      10.23834275       0.00000000 </v>
     <v>       0.24890476       0.25847105      10.05319996 </v>
    </varray>
    <i name="volume">   1056.67528873 </i>
    <varray name="rec_basis" >
     <v>       0.09740751       0.00048043      -0.00242404 </v>
     <v>       0.00000000       0.09767206      -0.00251118 </v>
     <v>       0.00000000       0.00000000       0.09947082 </v>
    </varray>
   </crystal>
   <varray name="positions" >
    <v>       0.53749652       0.40942755       0.36303941 </v>
    <v>       0.39940114       0.47957889       0.43947620 </v>
    <v>       0.55046752       0.56158202       0.44182386 </v>
    <v>       0.52694596       0.41658786       0.53909716 </v>
    <v>       0.50303627       0.46694807       0.44523385 </v>
   </varray>
  </structure>
  <varray name="forces" >
   <v>       0.19012507      -0.28059089      -0.42749346 </v>
   <v>      -0.73595442       0.06331842       0.00599286 </v>
   <v>       0.24118681       0.46646064      -0.07336547 </v>
   <v>      -0.06819829      -0.01968665      -0.00649918 </v>
   <v>       0.37288355      -0.22938428       0.50171409 </v>
  </varray>
  <varray name="stress" >
   <v>       0.82984021       0.08496751      -0.28042705 </v>
   <v>       0.08496751       0.37159745       0.29058447 </v>
   <v>      -0.28042705       0.29058447      -0.06277145 </v>
  </varray>
  <energy>
   <i name="e_fr_energy">    -24.01269118 </i>
   <i name="e_wo_entrp">    -24.01269118 </i>
   <i name="e_0_energy">     -0.00000000 </i>
   <i name="kinetic">      0.01932307 </i>
   <i name="lattice kinetic">      0.00000000 </i>
   <i name="nosepot">      0.00000000 </i>
   <i name="nosekinetic">      0.00000000 </i>
   <i name="total">    -23.99336811 </i>
  </energy>
  <time name="totalsc">    2.02    2.02</time>
 </calculation>
 <calculation>
  <scstep>
   <time name="dav">    0.14    0.14</time>
   <time name="total">    0.28    0.28</time>
   <energy>
    <i name="alphaZ">      0.22925755 </i>
    <i name="ewald">    134.87395222 </i>
    <i name="hartreedc">   -290.11419179 </i>
    <i name="XCdc">     24.91960590 </i>
    <i name="pawpsdc">    490.86853795 </i>
    <i name="pawaedc">   -491.66977420 </i>
    <i name="eentropy">     -0.00000000 </i>
    <i name="bandstr">    -90.15388455 </i>
    <i name="atom">    197.04175453 </i>
    <i name="e_fr_energy">    -24.00474239 </i>
    <i name="e_wo_entrp">    -24.00474239 </i>
    <i name="e_0_energy">    -24.00474239 </i>
   </energy>
  </scstep>
  <scstep>
   <time name="diag">    0.03    0.03</time>
   <time name="diis">    0.14    0.14</time>
   <time name="orth">    0.00    0.00</time>
   <time name="total">    0.32    0.32</time>
   <energy>
    <i name="e_fr_energy">    -24.00474463 </i>
    <i name="e_wo_entrp">    -24.00474463 </i>
    <i name="e_0_energy">    -24.00474463 </i>
   </energy>
  </scstep>
  <scstep>
   <time name="diag">    0.03    0.03</time>
   <time name="diis">    0.12    0.12</time>
   <time name="orth">    0.00    0.00</time>
   <time name="total">    0.30    0.30</time>
   <energy>
    <i name="e_fr_energy">    -24.00474465 </i>
    <i name="e_wo_entrp">    -24.00474465 </i>
    <i name="e_0_energy">    -24.00474465 </i>
   </energy>
  </scstep>
  <scstep>
   <time name="diag">    0.03    0.03</time>
   <time name="diis">    0.11    0.11</time>
   <time name="orth">    0.00    0.00</time>
   <time name="total">    0.27    0.27</time>
   <energy>
    <i name="alphaZ">      0.22925755 </i>
    <i name="ewald">    134.87395222 </i>
    <i name="hartreedc">   -290.11095345 </i>
    <i name="XCdc">     24.91955163 </i>
    <i name="pawpsdc">    490.72596367 </i>
    <i name="pawaedc">   -491.52714808 </i>
    <i name="eentropy">     -0.00000000 </i>
    <i name="bandstr">    -90.15712360 </i>
    <i name="atom">    197.04175453 </i>
    <i name="e_fr_energy">    -24.00474553 </i>
    <i name="e_wo_entrp">    -24.00474553 </i>
    <i name="e_0_energy">    -24.00474553 </i>
   </energy>
  </scstep>
  <structure>
   <crystal>
    <varray name="basis" >
     <v>      10.26614906       0.00000000       0.00000000 </v>
     <v>      -0.05049701      10.23834275       0.00000000 </v>
     <v>       0.24890476       0.25847105      10.05319996 </v>
    </varray>
    <i name="volume">   1056.67528873 </i>
    <varray name="rec_basis" >
     <v>       0.09740751       0.00048043      -0.00242404 </v>
     <v>       0.00000000       0.09767206      -0.00251118 </v>
     <v>       0.00000000       0.00000000       0.09947082 </v>
    </varray>
   </crystal>
   <varray name="positions" >
    <v>       0.53746532       0.40977511       0.36324361 </v>
    <v>       0.39984218       0.47944121       0.43967835 </v>
    <v>       0.55033237       0.56126738       0.44155314 </v>
    <v>       0.52665224       0.41651130       0.53907619 </v>
    <v>       0.50303785       0.46696317       0.44522430 </v>
   </varray>
  </structure>
  <varray name="forces" >
   <v>       0.22345120      -0.36903221      -0.52263284 </v>
   <v>      -0.91346752       0.08914958      -0.01692994 </v>
   <v>       0.29709776       0.58287147      -0.05461828 </v>
   <v>      -0.04104570      -0.01805730       0.00290731 </v>
   <v>       0.43375527      -0.28495449       0.59190434 </v>
  </varray>
  <varray name="stress" >
   <v>       1.17101150       0.08348043      -0.27421255 </v>
   <v>       0.08348044       0.61680647       0.39110823 </v>
   <v>      -0.27421255       0.39110823       0.06449531 </v>
  </varray>
  <energy>
   <i name="e_fr_energy">    -24.00474553 </i>
   <i name="e_wo_entrp">    -24.00474553 </i>
   <i name="e_0_energy">     -0.00000000 </i>
   <i name="kinetic">      0.01156023 </i>
   <i name="lattice kinetic">      0.00000000 </i>
   <i name="nosepot">      0.00000000 </i>
   <i name="nosekinetic">      0.00000000 </i>
   <i name="total">    -23.99318530 </i>
  </energy>
  <dos>
   <i name="efermi">     -8.29800473 </i>
   <total>
    <array>
     <dimension dim="1">gridpoints</dimension>
     <dimension dim="2">spin</dimension>
     <field>energy</field>
     <field>total</field>
     <field>integrated</field>
     <set>
      <set comment="spin 1">
       <r>   -19.0126     0.0000     0.0000 </r>
       <r>   -18.9402     0.0000     0.0000 </r>
       <r>   -18.8678     0.0000     0.0000 </r>
       <r>   -18.7954     0.0000     0.0000 </r>
       <r>   -18.7230     0.0000     0.0000 </r>
       <r>   -18.6506     0.0000     0.0000 </r>
       <r>   -18.5782     0.0000     0.0000 </r>
       <r>   -18.5058     0.0000     0.0000 </r>
       <r>   -18.4334     0.0000     0.0000 </r>
       <r>   -18.3610     0.0000     0.0000 </r>
       <r>   -18.2886     0.0000     0.0000 </r>
       <r>   -18.2162     0.0000     0.0000 </r>
       <r>   -18.1438     0.0000     0.0000 </r>
       <r>   -18.0714     0.0000     0.0000 </r>
       <r>   -17.9990     0.0000     0.0000 </r>
       <r>   -17.9266     0.0000     0.0000 </r>
       <r>   -17.8543     0.0000     0.0000 </r>
       <r>   -17.7819     0.0000     0.0000 </r>
       <r>   -17.7095     0.0001     0.0000 </r>
       <r>   -17.6371     0.0009     0.0001 </r>
       <r>   -17.5647     0.0088     0.0007 </r>
       <r>   -17.4923     0.0639     0.0053 </r>
       <r>   -17.4199     0.3584     0.0311 </r>
       <r>   -17.3475     1.5601     0.1433 </r>
       <r>   -17.2751     5.2718     0.5224 </r>
       <r>   -17.2027    13.8335     1.5172 </r>
       <r>   -17.1303    28.1971     3.5446 </r>
       <r>   -17.0579    44.6571     6.7550 </r>
       <r>   -16.9855    54.9672    10.7061 </r>
       <r>   -16.9131    52.5951    14.4861 </r>
       <r>   -16.8407    39.1301    17.2979 </r>
       <r>   -16.7683    22.6403    18.9246 </r>
       <r>   -16.6959    10.1890    19.6565 </r>
       <r>   -16.6235     3.5672    19.9127 </r>
       <r>   -16.5511     0.9717    19.9824 </r>
       <r>   -16.4787     0.2059    19.9972 </r>
       <r>   -16.4063     0.0340    19.9997 </r>
       <r>   -16.3340     0.0044    20.0000 </r>
       <r>   -16.2616     0.0004    20.0000 </r>
       <r>   -16.1892     0.0000    20.0000 </r>
       <r>   -16.1168     0.0000    20.0000 </r>
       <r>   -16.0444     0.0000    20.0000 </r>
       <r>   -15.9720     0.0000    20.0000 </r>
       <r>   -15.8996     0.0000    20.0000 </r>
       <r>   -15.8272     0.0000    20.0000 </r>
       <r>   -15.7548     0.0000    20.0000 </r>
       <r>   -15.6824     0.0000    20.0000 </r>
       <r>   -15.6100     0.0000    20.0000 </r>
       <r>   -15.5376     0.0000    20.0000 </r>
       <r>   -15.4652     0.0000    20.0000 </r>
       <r>   -15.3928     0.0000    20.0000 </r>
       <r>   -15.3204     0.0000    20.0000 </r>
       <r>   -15.2480     0.0000    20.0000 </r>
       <r>   -15.1756     0.0000    20.0000 </r>
       <r>   -15.1032     0.0000    20.0000 </r>
       <r>   -15.0308     0.0000    20.0000 </r>
       <r>   -14.9584     0.0000    20.0000 </r>
       <r>   -14.8860     0.0000    20.0000 </r>
       <r>   -14.8137     0.0000    20.0000 </r>
       <r>   -14.7413     0.0000    20.0000 </r>
       <r>   -14.6689     0.0000    20.0000 </r>
       <r>   -14.5965     0.0000    20.0000 </r>
       <r>   -14.5241     0.0000    20.0000 </r>
       <r>   -14.4517     0.0000    20.0000 </r>
       <r>   -14.3793     0.0000    20.0000 </r>
       <r>   -14.3069     0.0000    20.0000 </r>
       <r>   -14.2345     0.0000    20.0000 </r>
       <r>   -14.1621     0.0000    20.0000 </r>
       <r>   -14.0897     0.0000    20.0000 </r>
       <r>   -14.0173     0.0000    20.0000 </r>
       <r>   -13.9449     0.0000    20.0000 </r>
       <r>   -13.8725     0.0000    20.0000 </r>
       <r>   -13.8001     0.0000    20.0000 </r>
       <r>   -13.7277     0.0000    20.0000 </r>
       <r>   -13.6553     0.0000    20.0000 </r>
       <r>   -13.5829     0.0000    20.0000 </r>
       <r>   -13.5105     0.0000    20.0000 </r>
       <r>   -13.4381     0.0000    20.0000 </r>
       <r>   -13.3657     0.0000    20.0000 </r>
       <r>   -13.2934     0.0000    20.0000 </r>
       <r>   -13.2210     0.0000    20.0000 </r>
       <r>   -13.1486     0.0000    20.0000 </r>
       <r>   -13.0762     0.0000    20.0000 </r>
       <r>   -13.0038     0.0000    20.0000 </r>
       <r>   -12.9314     0.0000    20.0000 </r>
       <r>   -12.8590     0.0000    20.0000 </r>
       <r>   -12.7866     0.0000    20.0000 </r>
       <r>   -12.7142     0.0000    20.0000 </r>
       <r>   -12.6418     0.0000    20.0000 </r>
       <r>   -12.5694     0.0000    20.0000 </r>
       <r>   -12.4970     0.0000    20.0000 </r>
       <r>   -12.4246     0.0000    20.0000 </r>
       <r>   -12.3522     0.0000    20.0000 </r>
       <r>   -12.2798     0.0000    20.0000 </r>
       <r>   -12.2074     0.0000    20.0000 </r>
       <r>   -12.1350     0.0000    20.0000 </r>
       <r>   -12.0626     0.0000    20.0000 </r>
       <r>   -11.9902     0.0000    20.0000 </r>
       <r>   -11.9178     0.0000    20.0000 </r>
       <r>   -11.8454     0.0000    20.0000 </r>
       <r>   -11.7730     0.0000    20.0000 </r>
       <r>   -11.7007     0.0000    20.0000 </r>
       <r>   -11.6283     0.0000    20.0000 </r>
       <r>   -11.5559     0.0000    20.0000 </r>
       <r>   -11.4835     0.0000    20.0000 </r>
       <r>   -11.4111     0.0000    20.0000 </r>
       <r>   -11.3387     0.0000    20.0000 </r>
       <r>   -11.2663     0.0000    20.0000 </r>
       <r>   -11.1939     0.0000    20.0000 </r>
       <r>   -11.1215     0.0000    20.0000 </r>
       <r>   -11.0491     0.0000    20.0000 </r>
       <r>   -10.9767     0.0000    20.0000 </r>
       <r>   -10.9043     0.0000    20.0000 </r>
       <r>   -10.8319     0.0000    20.0000 </r>
       <r>   -10.7595     0.0000    20.0000 </r>
       <r>   -10.6871     0.0000    20.0000 </r>
       <r>   -10.6147     0.0000    20.0000 </r>
       <r>   -10.5423     0.0000    20.0000 </r>
       <r>   -10.4699     0.0000    20.0000 </r>
       <r>   -10.3975     0.0000    20.0000 </r>
       <r>   -10.3251     0.0000    20.0000 </r>
       <r>   -10.2527     0.0000    20.0000 </r>
       <r>   -10.1804     0.0000    20.0000 </r>
       <r>   -10.1080     0.0005    20.0000 </r>
       <r>   -10.0356     0.0053    20.0004 </r>
       <r>    -9.9632     0.0420    20.0034 </r>
       <r>    -9.8908     0.2600    20.0221 </r>
       <r>    -9.8184     1.2683    20.1131 </r>
       <r>    -9.7460     4.8833    20.4637 </r>
       <r>    -9.6736    14.8708    21.5316 </r>
       <r>    -9.6012    35.9302    24.1127 </r>
       <r>    -9.5288    69.2364    29.0880 </r>
       <r>    -9.4564   107.2908    36.7997 </r>
       <r>    -9.3840   135.3573    46.5307 </r>
       <r>    -9.3116   141.2347    56.6853 </r>
       <r>    -9.2392   123.8313    65.5882 </r>
       <r>    -9.1668    92.1311    72.2107 </r>
       <r>    -9.0944    58.0854    76.3847 </r>
       <r>    -9.0220    30.6607    78.5871 </r>
       <r>    -8.9496    13.3213    79.5435 </r>
       <r>    -8.8772     4.6876    79.8799 </r>
       <r>    -8.8048     1.3195    79.9746 </r>
       <r>    -8.7324     0.2946    79.9957 </r>
       <r>    -8.6601     0.0519    79.9994 </r>
       <r>    -8.5877     0.0072    79.9999 </r>
       <r>    -8.5153     0.0008    80.0000 </r>
       <r>    -8.4429     0.0001    80.0000 </r>
       <r>    -8.3705     0.0000    80.0000 </r>
       <r>    -8.2981     0.0000    80.0000 </r>
       <r>    -8.2257     0.0000    80.0000 </r>
       <r>    -8.1533     0.0000    80.0000 </r>
       <r>    -8.0809     0.0000    80.0000 </r>
       <r>    -8.0085     0.0000    80.0000 </r>
       <r>    -7.9361     0.0000    80.0000 </r>
       <r>    -7.8637     0.0000    80.0000 </r>
       <r>    -7.7913     0.0000    80.0000 </r>
       <r>    -7.7189     0.0000    80.0000 </r>
       <r>    -7.6465     0.0000    80.0000 </r>
       <r>    -7.5741     0.0000    80.0000 </r>
       <r>    -7.5017     0.0000    80.0000 </r>
       <r>    -7.4293     0.0000    80.0000 </r>
       <r>    -7.3569     0.0000    80.0000 </r>
       <r>    -7.2845     0.0000    80.0000 </r>
       <r>    -7.2121     0.0000    80.0000 </r>
       <r>    -7.1398     0.0000    80.0000 </r>
       <r>    -7.0674     0.0000    80.0000 </r>
       <r>    -6.9950     0.0000    80.0000 </r>
       <r>    -6.9226     0.0000    80.0000 </r>
       <r>    -6.8502     0.0000    80.0000 </r>
       <r>    -6.7778     0.0000    80.0000 </r>
       <r>    -6.7054     0.0000    80.0000 </r>
       <r>    -6.6330     0.0000    80.0000 </r>
       <r>    -6.5606     0.0000    80.0000 </r>
       <r>    -6.4882     0.0000    80.0000 </r>
       <r>    -6.4158     0.0000    80.0000 </r>
       <r>    -6.3434     0.0000    80.0000 </r>
       <r>    -6.2710     0.0000    80.0000 </r>
       <r>    -6.1986     0.0000    80.0000 </r>
       <r>    -6.1262     0.0000    80.0000 </r>
       <r>    -6.0538     0.0000    80.0000 </r>
       <r>    -5.9814     0.0000    80.0000 </r>
       <r>    -5.9090     0.0000    80.0000 </r>
       <r>    -5.8366     0.0000    80.0000 </r>
       <r>    -5.7642     0.0000    80.0000 </r>
       <r>    -5.6918     0.0000    80.0000 </r>
       <r>    -5.6194     0.0000    80.0000 </r>
       <r>    -5.5471     0.0000    80.0000 </r>
       <r>    -5.4747     0.0000    80.0000 </r>
       <r>    -5.4023     0.0000    80.0000 </r>
       <r>    -5.3299     0.0000    80.0000 </r>
       <r>    -5.2575     0.0000    80.0000 </r>
       <r>    -5.1851     0.0000    80.0000 </r>
       <r>    -5.1127     0.0000    80.0000 </r>
       <r>    -5.0403     0.0000    80.0000 </r>
       <r>    -4.9679     0.0000    80.0000 </r>
       <r>    -4.8955     0.0000    80.0000 </r>
       <r>    -4.8231     0.0000    80.0000 </r>
       <r>    -4.7507     0.0000    80.0000 </r>
       <r>    -4.6783     0.0000    80.0000 </r>
       <r>    -4.6059     0.0000    80.0000 </r>
       <r>    -4.5335     0.0000    80.0000 </r>
       <r>    -4.4611     0.0000    80.0000 </r>
       <r>    -4.3887     0.0000    80.0000 </r>
       <r>    -4.3163     0.0000    80.0000 </r>
       <r>    -4.2439     0.0000    80.0000 </r>
       <r>    -4.1715     0.0000    80.0000 </r>
       <r>    -4.0991     0.0000    80.0000 </r>
       <r>    -4.0268     0.0000    80.0000 </r>
       <r>    -3.9544     0.0000    80.0000 </r>
       <r>    -3.8820     0.0000    80.0000 </r>
       <r>    -3.8096     0.0000    80.0000 </r>
       <r>    -3.7372     0.0000    80.0000 </r>
       <r>    -3.6648     0.0000    80.0000 </r>
       <r>    -3.5924     0.0000    80.0000 </r>
       <r>    -3.5200     0.0000    80.0000 </r>
       <r>    -3.4476     0.0000    80.0000 </r>
       <r>    -3.3752     0.0000    80.0000 </r>
       <r>    -3.3028     0.0000    80.0000 </r>
       <r>    -3.2304     0.0000    80.0000 </r>
       <r>    -3.1580     0.0000    80.0000 </r>
       <r>    -3.0856     0.0000    80.0000 </r>
       <r>    -3.0132     0.0000    80.0000 </r>
       <r>    -2.9408     0.0000    80.0000 </r>
       <r>    -2.8684     0.0000    80.0000 </r>
       <r>    -2.7960     0.0000    80.0000 </r>
       <r>    -2.7236     0.0000    80.0000 </r>
       <r>    -2.6512     0.0000    80.0000 </r>
       <r>    -2.5788     0.0000    80.0000 </r>
       <r>    -2.5065     0.0000    80.0000 </r>
       <r>    -2.4341     0.0000    80.0000 </r>
       <r>    -2.3617     0.0000    80.0000 </r>
[...]
       <r>     0.2446     5.8265   100.5597 </r>
       <r>     0.3170    16.6168   101.7530 </r>
       <r>     0.3894    38.6083   104.5261 </r>
       <r>     0.4618    73.0806   109.7764 </r>
       <r>     0.5342   113.3200   117.9194 </r>
       <r>     0.6065   144.2064   128.2837 </r>
       <r>     0.6789   150.1686   139.0783 </r>
       <r>     0.7513   127.1169   148.2172 </r>
       <r>     0.8237    86.7344   154.4536 </r>
       <r>     0.8961    47.3052   157.8555 </r>
       <r>     0.9685    20.4758   159.3281 </r>
       <r>     1.0409     6.9943   159.8312 </r>
       <r>     1.1133     1.8776   159.9663 </r>
       <r>     1.1857     0.3949   159.9947 </r>
       <r>     1.2581     0.0649   159.9993 </r>
       <r>     1.3305     0.0083   159.9999 </r>
       <r>     1.4029     0.0008   160.0000 </r>
       <r>     1.4753     0.0001   160.0000 </r>
       <r>     1.5477     0.0000   160.0000 </r>
       <r>     1.6201     0.0000   160.0000 </r>
       <r>     1.6925     0.0000   160.0000 </r>
       <r>     1.7649     0.0000   160.0000 </r>
       <r>     1.8373     0.0000   160.0000 </r>
       <r>     1.9097     0.0000   160.0000 </r>
       <r>     1.9821     0.0000   160.0000 </r>
       <r>     2.0545     0.0000   160.0000 </r>
       <r>     2.1268     0.0000   160.0000 </r>
       <r>     2.1992     0.0000   160.0000 </r>
       <r>     2.2716     0.0000   160.0000 </r>
       <r>     2.3440     0.0000   160.0000 </r>
       <r>     2.4164     0.0000   160.0000 </r>
       <r>     2.4888     0.0000   160.0000 </r>
       <r>     2.5612     0.0000   160.0000 </r>
       <r>     2.6336     0.0000   160.0000 </r>
       <r>     2.7060     0.0000   160.0000 </r>
      </set>
     </set>
    </array>
   </total>
  </dos>
  <time name="totalsc">    1.88    1.88</time>
  <eigenvalues>
   <array>
    <dimension dim="1">band</dimension>
    <dimension dim="2">kpoint</dimension>
    <dimension dim="3">spin</dimension>
    <field>eigene</field>
    <field>occ</field>
    <set>
     <set comment="spin 1">
      <set comment="kpoint 1">
       <r>  -17.0266    1.0000 </r>
       <r>   -9.4155    1.0000 </r>
       <r>   -9.3840    1.0000 </r>
       <r>   -9.2875    1.0000 </r>
       <r>   -0.2946    0.0000 </r>
       <r>    0.5726    0.0000 </r>
       <r>    0.6775    0.0000 </r>
       <r>    0.7130    0.0000 </r>
      </set>
      <set comment="kpoint 2">
       <r>  -17.0266    1.0000 </r>
       <r>   -9.4155    1.0000 </r>
       <r>   -9.3839    1.0000 </r>
       <r>   -9.2876    1.0000 </r>
       <r>   -0.2911    0.0000 </r>
       <r>    0.5624    0.0000 </r>
       <r>    0.6715    0.0000 </r>
       <r>    0.6997    0.0000 </r>
      </set>
      <set comment="kpoint 3">
       <r>  -17.0266    1.0000 </r>
       <r>   -9.4155    1.0000 </r>
       <r>   -9.3840    1.0000 </r>
       <r>   -9.2876    1.0000 </r>
       <r>   -0.2905    0.0000 </r>
       <r>    0.5617    0.0000 </r>
       <r>    0.6737    0.0000 </r>
       <r>    0.6969    0.0000 </r>
      </set>
      <set comment="kpoint 4">
       <r>  -17.0266    1.0000 </r>
       <r>   -9.4156    1.0000 </r>
       <r>   -9.3840    1.0000 </r>
       <r>   -9.2876    1.0000 </r>
       <r>   -0.2852    0.0000 </r>
       <r>    0.5546    0.0000 </r>
       <r>    0.6593    0.0000 </r>
       <r>    0.6828    0.0000 </r>
      </set>
     </set>
    </set>
   </array>
  </eigenvalues>
  <separator name="orbital magnetization" >
   <v name="MAGDIPOLOUT">      0.00000000      0.00000000      0.00000000</v>
  </separator>
  <dos>
   <i name="efermi">     -8.30166369 </i>
   <total>
    <array>
     <dimension dim="1">gridpoints</dimension>
     <dimension dim="2">spin</dimension>
     <field>energy</field>
     <field>total</field>
     <field>integrated</field>
     <set>
      <set comment="spin 1">
       <r>   -19.0266     0.0000     0.0000 </r>
       <r>   -18.9542     0.0000     0.0000 </r>
       <r>   -18.8817     0.0000     0.0000 </r>
       <r>   -18.8092     0.0000     0.0000 </r>
       <r>   -18.7368     0.0000     0.0000 </r>
       <r>   -18.6643     0.0000     0.0000 </r>
       <r>   -18.5918     0.0000     0.0000 </r>
       <r>   -18.5194     0.0000     0.0000 </r>
       <r>   -18.4469     0.0000     0.0000 </r>
       <r>   -18.3744     0.0000     0.0000 </r>
       <r>   -18.3020     0.0000     0.0000 </r>
       <r>   -18.2295     0.0000     0.0000 </r>
       <r>   -18.1571     0.0000     0.0000 </r>
       <r>   -18.0846     0.0000     0.0000 </r>
       <r>   -18.0121     0.0000     0.0000 </r>
       <r>   -17.9397     0.0000     0.0000 </r>
       <r>   -17.8672     0.0000     0.0000 </r>
       <r>   -17.7947     0.0000     0.0000 </r>
       <r>   -17.7223     0.0000     0.0000 </r>
       <r>   -17.6498     0.0001     0.0000 </r>
       <r>   -17.5773     0.0012     0.0001 </r>
       <r>   -17.5049     0.0086     0.0007 </r>
       <r>   -17.4324     0.0468     0.0041 </r>
       <r>   -17.3599     0.1976     0.0184 </r>
       <r>   -17.2875     0.6443     0.0651 </r>
       <r>   -17.2150     1.6247     0.1829 </r>
       <r>   -17.1425     3.1682     0.4124 </r>
       <r>   -17.0701     4.7782     0.7587 </r>
       <r>   -16.9976     5.5737     1.1626 </r>
       <r>   -16.9251     5.0288     1.5270 </r>
       <r>   -16.8527     3.5093     1.7813 </r>
       <r>   -16.7802     1.8940     1.9186 </r>
       <r>   -16.7077     0.7905     1.9759 </r>
       <r>   -16.6353     0.2551     1.9943 </r>
       <r>   -16.5628     0.0637     1.9990 </r>
       <r>   -16.4903     0.0123     1.9999 </r>
       <r>   -16.4179     0.0018     2.0000 </r>
       <r>   -16.3454     0.0002     2.0000 </r>
       <r>   -16.2729     0.0000     2.0000 </r>
       <r>   -16.2005     0.0000     2.0000 </r>
       <r>   -16.1280     0.0000     2.0000 </r>
       <r>   -16.0556     0.0000     2.0000 </r>
       <r>   -15.9831     0.0000     2.0000 </r>
       <r>   -15.9106     0.0000     2.0000 </r>
       <r>   -15.8382     0.0000     2.0000 </r>
       <r>   -15.7657     0.0000     2.0000 </r>
       <r>   -15.6932     0.0000     2.0000 </r>
       <r>   -15.6208     0.0000     2.0000 </r>
       <r>   -15.5483     0.0000     2.0000 </r>
       <r>   -15.4758     0.0000     2.0000 </r>
       <r>   -15.4034     0.0000     2.0000 </r>
       <r>   -15.3309     0.0000     2.0000 </r>
       <r>   -15.2584     0.0000     2.0000 </r>
       <r>   -15.1860     0.0000     2.0000 </r>
       <r>   -15.1135     0.0000     2.0000 </r>
       <r>   -15.0410     0.0000     2.0000 </r>
       <r>   -14.9686     0.0000     2.0000 </r>
       <r>   -14.8961     0.0000     2.0000 </r>
       <r>   -14.8236     0.0000     2.0000 </r>
       <r>   -14.7512     0.0000     2.0000 </r>
       <r>   -14.6787     0.0000     2.0000 </r>
       <r>   -14.6062     0.0000     2.0000 </r>
       <r>   -14.5338     0.0000     2.0000 </r>
       <r>   -14.4613     0.0000     2.0000 </r>
       <r>   -14.3888     0.0000     2.0000 </r>
       <r>   -14.3164     0.0000     2.0000 </r>
       <r>   -14.2439     0.0000     2.0000 </r>
       <r>   -14.1714     0.0000     2.0000 </r>
       <r>   -14.0990     0.0000     2.0000 </r>
       <r>   -14.0265     0.0000     2.0000 </r>
       <r>   -13.9540     0.0000     2.0000 </r>
       <r>   -13.8816     0.0000     2.0000 </r>
       <r>   -13.8091     0.0000     2.0000 </r>
       <r>   -13.7367     0.0000     2.0000 </r>
       <r>   -13.6642     0.0000     2.0000 </r>
       <r>   -13.5917     0.0000     2.0000 </r>
       <r>   -13.5193     0.0000     2.0000 </r>
       <r>   -13.4468     0.0000     2.0000 </r>
       <r>   -13.3743     0.0000     2.0000 </r>
       <r>   -13.3019     0.0000     2.0000 </r>
       <r>   -13.2294     0.0000     2.0000 </r>
       <r>   -13.1569     0.0000     2.0000 </r>
       <r>   -13.0845     0.0000     2.0000 </r>
       <r>   -13.0120     0.0000     2.0000 </r>
       <r>   -12.9395     0.0000     2.0000 </r>
       <r>   -12.8671     0.0000     2.0000 </r>
       <r>   -12.7946     0.0000     2.0000 </r>
       <r>   -12.7221     0.0000     2.0000 </r>
       <r>   -12.6497     0.0000     2.0000 </r>
       <r>   -12.5772     0.0000     2.0000 </r>
       <r>   -12.5047     0.0000     2.0000 </r>
       <r>   -12.4323     0.0000     2.0000 </r>
       <r>   -12.3598     0.0000     2.0000 </r>
       <r>   -12.2873     0.0000     2.0000 </r>
       <r>   -12.2149     0.0000     2.0000 </r>
       <r>   -12.1424     0.0000     2.0000 </r>
       <r>   -12.0699     0.0000     2.0000 </r>
       <r>   -11.9975     0.0000     2.0000 </r>
       <r>   -11.9250     0.0000     2.0000 </r>
       <r>   -11.8525     0.0000     2.0000 </r>
       <r>   -11.7801     0.0000     2.0000 </r>
       <r>   -11.7076     0.0000     2.0000 </r>
       <r>   -11.6352     0.0000     2.0000 </r>
       <r>   -11.5627     0.0000     2.0000 </r>
       <r>   -11.4902     0.0000     2.0000 </r>
       <r>   -11.4178     0.0000     2.0000 </r>
       <r>   -11.3453     0.0000     2.0000 </r>
       <r>   -11.2728     0.0000     2.0000 </r>
       <r>   -11.2004     0.0000     2.0000 </r>
       <r>   -11.1279     0.0000     2.0000 </r>
       <r>   -11.0554     0.0000     2.0000 </r>
       <r>   -10.9830     0.0000     2.0000 </r>
       <r>   -10.9105     0.0000     2.0000 </r>
       <r>   -10.8380     0.0000     2.0000 </r>
       <r>   -10.7656     0.0000     2.0000 </r>
       <r>   -10.6931     0.0000     2.0000 </r>
       <r>   -10.6206     0.0000     2.0000 </r>
       <r>   -10.5482     0.0000     2.0000 </r>
       <r>   -10.4757     0.0000     2.0000 </r>
       <r>   -10.4032     0.0000     2.0000 </r>
       <r>   -10.3308     0.0000     2.0000 </r>
       <r>   -10.2583     0.0000     2.0000 </r>
       <r>   -10.1858     0.0000     2.0000 </r>
       <r>   -10.1134     0.0000     2.0000 </r>
       <r>   -10.0409     0.0002     2.0000 </r>
       <r>    -9.9684     0.0016     2.0001 </r>
       <r>    -9.8960     0.0119     2.0010 </r>
       <r>    -9.8235     0.0684     2.0060 </r>
       <r>    -9.7510     0.3065     2.0282 </r>
       <r>    -9.6786     1.0715     2.1058 </r>
       <r>    -9.6061     2.9324     2.3183 </r>
       <r>    -9.5336     6.3069     2.7753 </r>
       <r>    -9.4612    10.7111     3.5515 </r>
       <r>    -9.3887    14.4422     4.5981 </r>
       <r>    -9.3163    15.5449     5.7246 </r>
       <r>    -9.2438    13.4189     6.6970 </r>
       <r>    -9.1713     9.3157     7.3720 </r>
       <r>    -9.0989     5.2017     7.7490 </r>
       <r>    -9.0264     2.3300     7.9178 </r>
       <r>    -8.9539     0.8334     7.9782 </r>
       <r>    -8.8815     0.2366     7.9954 </r>
       <r>    -8.8090     0.0530     7.9992 </r>
       <r>    -8.7365     0.0093     7.9999 </r>
       <r>    -8.6641     0.0013     8.0000 </r>
       <r>    -8.5916     0.0001     8.0000 </r>
       <r>    -8.5191     0.0000     8.0000 </r>
       <r>    -8.4467     0.0000     8.0000 </r>
       <r>    -8.3742     0.0000     8.0000 </r>
       <r>    -8.3017     0.0000     8.0000 </r>
       <r>    -8.2293     0.0000     8.0000 </r>
       <r>    -8.1568     0.0000     8.0000 </r>
       <r>    -8.0843     0.0000     8.0000 </r>
       <r>    -8.0119     0.0000     8.0000 </r>
       <r>    -7.9394     0.0000     8.0000 </r>
       <r>    -7.8669     0.0000     8.0000 </r>
       <r>    -7.7945     0.0000     8.0000 </r>
       <r>    -7.7220     0.0000     8.0000 </r>
       <r>    -7.6495     0.0000     8.0000 </r>
       <r>    -7.5771     0.0000     8.0000 </r>
       <r>    -7.5046     0.0000     8.0000 </r>
       <r>    -7.4321     0.0000     8.0000 </r>
       <r>    -7.3597     0.0000     8.0000 </r>
       <r>    -7.2872     0.0000     8.0000 </r>
       <r>    -7.2148     0.0000     8.0000 </r>
       <r>    -7.1423     0.0000     8.0000 </r>
       <r>    -7.0698     0.0000     8.0000 </r>
       <r>    -6.9974     0.0000     8.0000 </r>
       <r>    -6.9249     0.0000     8.0000 </r>
       <r>    -6.8524     0.0000     8.0000 </r>
       <r>    -6.7800     0.0000     8.0000 </r>
       <r>    -6.7075     0.0000     8.0000 </r>
       <r>    -6.6350     0.0000     8.0000 </r>
       <r>    -6.5626     0.0000     8.0000 </r>
       <r>    -6.4901     0.0000     8.0000 </r>
       <r>    -6.4176     0.0000     8.0000 </r>
       <r>    -6.3452     0.0000     8.0000 </r>
       <r>    -6.2727     0.0000     8.0000 </r>
       <r>    -6.2002     0.0000     8.0000 </r>
       <r>    -6.1278     0.0000     8.0000 </r>
       <r>    -6.0553     0.0000     8.0000 </r>
       <r>    -5.9828     0.0000     8.0000 </r>
       <r>    -5.9104     0.0000     8.0000 </r>
       <r>    -5.8379     0.0000     8.0000 </r>
       <r>    -5.7654     0.0000     8.0000 </r>
       <r>    -5.6930     0.0000     8.0000 </r>
       <r>    -5.6205     0.0000     8.0000 </r>
       <r>    -5.5480     0.0000     8.0000 </r>
       <r>    -5.4756     0.0000     8.0000 </r>
       <r>    -5.4031     0.0000     8.0000 </r>
       <r>    -5.3306     0.0000     8.0000 </r>
       <r>    -5.2582     0.0000     8.0000 </r>
       <r>    -5.1857     0.0000     8.0000 </r>
       <r>    -5.1132     0.0000     8.0000 </r>
       <r>    -5.0408     0.0000     8.0000 </r>
       <r>    -4.9683     0.0000     8.0000 </r>
       <r>    -4.8959     0.0000     8.0000 </r>
       <r>    -4.8234     0.0000     8.0000 </r>
       <r>    -4.7509     0.0000     8.0000 </r>
       <r>    -4.6785     0.0000     8.0000 </r>
       <r>    -4.6060     0.0000     8.0000 </r>
       <r>    -4.5335     0.0000     8.0000 </r>
       <r>    -4.4611     0.0000     8.0000 </r>
       <r>    -4.3886     0.0000     8.0000 </r>
       <r>    -4.3161     0.0000     8.0000 </r>
       <r>    -4.2437     0.0000     8.0000 </r>
       <r>    -4.1712     0.0000     8.0000 </r>
       <r>    -4.0987     0.0000     8.0000 </r>
       <r>    -4.0263     0.0000     8.0000 </r>
       <r>    -3.9538     0.0000     8.0000 </r>
       <r>    -3.8813     0.0000     8.0000 </r>
       <r>    -3.8089     0.0000     8.0000 </r>
       <r>    -3.7364     0.0000     8.0000 </r>
       <r>    -3.6639     0.0000     8.0000 </r>
       <r>    -3.5915     0.0000     8.0000 </r>
       <r>    -3.5190     0.0000     8.0000 </r>
       <r>    -3.4465     0.0000     8.0000 </r>
       <r>    -3.3741     0.0000     8.0000 </r>
       <r>    -3.3016     0.0000     8.0000 </r>
       <r>    -3.2291     0.0000     8.0000 </r>
       <r>    -3.1567     0.0000     8.0000 </r>
       <r>    -3.0842     0.0000     8.0000 </r>
       <r>    -3.0117     0.0000     8.0000 </r>
       <r>    -2.9393     0.0000     8.0000 </r>
       <r>    -2.8668     0.0000     8.0000 </r>
       <r>    -2.7944     0.0000     8.0000 </r>
       <r>    -2.7219     0.0000     8.0000 </r>
       <r>    -2.6494     0.0000     8.0000 </r>
       <r>    -2.5770     0.0000     8.0000 </r>
       <r>    -2.5045     0.0000     8.0000 </r>
       <r>    -2.4320     0.0000     8.0000 </r>
       <r>    -2.3596     0.0000     8.0000 </r>
       <r>    -2.2871     0.0000     8.0000 </r>
       <r>    -2.2146     0.0000     8.0000 </r>
       <r>    -2.1422     0.0000     8.0000 </r>
       <r>    -2.0697     0.0000     8.0000 </r>
       <r>    -1.9972     0.0000     8.0000 </r>
       <r>    -1.9248     0.0000     8.0000 </r>
       <r>    -1.8523     0.0000     8.0000 </r>
       <r>    -1.7798     0.0000     8.0000 </r>
       <r>    -1.7074     0.0000     8.0000 </r>
       <r>    -1.6349     0.0000     8.0000 </r>
       <r>    -1.5624     0.0000     8.0000 </r>
       <r>    -1.4900     0.0000     8.0000 </r>
       <r>    -1.4175     0.0000     8.0000 </r>
       <r>    -1.3450     0.0000     8.0000 </r>
       <r>    -1.2726     0.0000     8.0000 </r>
       <r>    -1.2001     0.0000     8.0000 </r>
       <r>    -1.1276     0.0000     8.0000 </r>
       <r>    -1.0552     0.0000     8.0000 </r>
       <r>    -0.9827     0.0000     8.0000 </r>
       <r>    -0.9102     0.0001     8.0000 </r>
       <r>    -0.8378     0.0013     8.0001 </r>
       <r>    -0.7653     0.0093     8.0008 </r>
       <r>    -0.6928     0.0504     8.0044 </r>
       <r>    -0.6204     0.2099     8.0196 </r>
       <r>    -0.5479     0.6761     8.0686 </r>
       <r>    -0.4755     1.6843     8.1907 </r>
       <r>    -0.4030     3.2455     8.4259 </r>
       <r>    -0.3305     4.8373     8.7764 </r>
       <r>    -0.2581     5.5771     9.1806 </r>
       <r>    -0.1856     4.9742     9.5410 </r>
       <r>    -0.1131     3.4319     9.7897 </r>
       <r>    -0.0407     1.8318     9.9225 </r>
       <r>     0.0318     0.7583     9.9774 </r>
       <r>     0.1043     0.2566     9.9960 </r>
       <r>     0.1767     0.1399    10.0061 </r>
       <r>     0.2492     0.3439    10.0311 </r>
       <r>     0.3217     1.0913    10.1102 </r>
       <r>     0.3941     2.8467    10.3164 </r>
       <r>     0.4666     5.9706    10.7491 </r>
       <r>     0.5391    10.1144    11.4820 </r>
       <r>     0.6115    13.8784    12.4878 </r>
       <r>     0.6840    15.4119    13.6046 </r>
       <r>     0.7565    13.7926    14.6041 </r>
       <r>     0.8289     9.8842    15.3203 </r>
       <r>     0.9014     5.6327    15.7285 </r>
       <r>     0.9739     2.5362    15.9123 </r>
       <r>     1.0463     0.8975    15.9773 </r>
       <r>     1.1188     0.2486    15.9954 </r>
       <r>     1.1913     0.0537    15.9992 </r>
       <r>     1.2637     0.0090    15.9999 </r>
       <r>     1.3362     0.0012    16.0000 </r>
       <r>     1.4087     0.0001    16.0000 </r>
       <r>     1.4811     0.0000    16.0000 </r>
       <r>     1.5536     0.0000    16.0000 </r>
       <r>     1.6260     0.0000    16.0000 </r>
       <r>     1.6985     0.0000    16.0000 </r>
       <r>     1.7710     0.0000    16.0000 </r>
       <r>     1.8434     0.0000    16.0000 </r>
       <r>     1.9159     0.0000    16.0000 </r>
       <r>     1.9884     0.0000    16.0000 </r>
       <r>     2.0608     0.0000    16.0000 </r>
       <r>     2.1333     0.0000    16.0000 </r>
       <r>     2.2058     0.0000    16.0000 </r>
       <r>     2.2782     0.0000    16.0000 </r>
       <r>     2.3507     0.0000    16.0000 </r>
       <r>     2.4232     0.0000    16.0000 </r>
       <r>     2.4956     0.0000    16.0000 </r>
       <r>     2.5681     0.0000    16.0000 </r>
       <r>     2.6406     0.0000    16.0000 </r>
       <r>     2.7130     0.0000    16.0000 </r>
      </set>
     </set>
    </array>
   </total>
  </dos>
 </calculation>
 <structure name="finalpos" >
  <crystal>
   <varray name="basis" >
    <v>      10.26614906       0.00000000       0.00000000 </v>
    <v>      -0.05049701      10.23834275       0.00000000 </v>
    <v>       0.24890476       0.25847105      10.05319996 </v>
   </varray>
   <i name="volume">   1056.67528873 </i>
   <varray name="rec_basis" >
    <v>       0.09740751       0.00048043      -0.00242404 </v>
    <v>       0.00000000       0.09767206      -0.00251118 </v>
    <v>       0.00000000       0.00000000       0.09947082 </v>
   </varray>
  </crystal>
  <varray name="positions" >
   <v>       0.53748925       0.41003890       0.36332240 </v>
   <v>       0.40006881       0.47932463       0.43987643 </v>
   <v>       0.55026802       0.56109040       0.44126932 </v>
   <v>       0.52634884       0.41643046       0.53905591 </v>
   <v>       0.50304761       0.46697238       0.44522657 </v>
  </varray>
  <varray name="velocities" >
   <v>       0.00002393       0.00026378       0.00007879 </v>
   <v>       0.00022663      -0.00011658       0.00019808 </v>
   <v>      -0.00006435      -0.00017698      -0.00028383 </v>
   <v>      -0.00030340      -0.00008084      -0.00002028 </v>
   <v>       0.00000976       0.00000921       0.00000227 </v>
  </varray>
 </structure>
</modeling>
