unknown system                          
           1
    10.266149    0.000000    0.000000
    -0.050497   10.238343    0.000000
     0.248905    0.258471   10.053200
   H    C 
   4   1
Direct configuration=     1
   0.53832608  0.40663674  0.36049066
   0.39460445  0.48053815  0.43839062
   0.55201433  0.56484504  0.44306030
   0.52831715  0.41695407  0.53916804
   0.50312362  0.46679840  0.44542759
Direct configuration=     2
   0.53828407  0.40675115  0.36060661
   0.39481523  0.48050118  0.43842781
   0.55194494  0.56470174  0.44302246
   0.52827548  0.41694206  0.53916717
   0.50311881  0.46680489  0.44541806
Direct configuration=     3
   0.53820417  0.40697199  0.36082989
   0.39522220  0.48042913  0.43850062
   0.55181142  0.56442592  0.44294739
   0.52819201  0.41691835  0.53916541
   0.50310965  0.46681744  0.44539981
Direct configuration=     4
   0.53809330  0.40728595  0.36114374
   0.39579696  0.48032579  0.43860656
   0.55162349  0.56403684  0.44283634
   0.52806809  0.41688389  0.53916176
   0.50309699  0.46683516  0.44537441
Direct configuration=     5
   0.53796151  0.40767358  0.36152368
   0.39649773  0.48019673  0.43874203
   0.55139539  0.56356266  0.44269113
   0.52790590  0.41683970  0.53915544
   0.50308211  0.46685679  0.44534411
Direct configuration=     6
   0.53782152  0.40811017  0.36193875
   0.39727119  0.48004910  0.43890237
   0.55114512  0.56303905  0.44251416
   0.52770847  0.41678682  0.53914601
   0.50306664  0.46688073  0.44531172
Direct configuration=     7
   0.53768761  0.40856765  0.36235391
   0.39805598  0.47989109  0.43908216
   0.55089303  0.56250641  0.44230831
   0.52747959  0.41672645  0.53913311
   0.50305250  0.46690517  0.44528040
Direct configuration=     8
   0.53757457  0.40901647  0.36273263
   0.39878721  0.47973145  0.43927548
   0.55066030  0.56200699  0.44207696
   0.52722367  0.41665983  0.53911656
   0.50304171  0.46692822  0.44525342
Direct configuration=     9
   0.53749652  0.40942755  0.36303941
   0.39940114  0.47957889  0.43947620
   0.55046752  0.56158202  0.44182386
   0.52694596  0.41658786  0.53909716
   0.50303627  0.46694807  0.44523385
Direct configuration=    10
   0.53746532  0.40977511  0.36324361
   0.39984218  0.47944121  0.43967835
   0.55033237  0.56126738  0.44155314
   0.52665224  0.41651130  0.53907619
   0.50303785  0.46696317  0.44522430
