   5   5   0   0
  0.1995418E+03  0.9900850E-09  0.1019575E-08  0.9886973E-09  0.5000000E-15
  1.000000000000000E-004
  CAR 
 unknown system                          
      2.71312240    -18.86331678  301     -8.21886988      1.00000000
    -18.863  0.0000E+00  0.0000E+00
    -18.791  0.0000E+00  0.0000E+00
    -18.719  0.0000E+00  0.0000E+00
    -18.648  0.0000E+00  0.0000E+00
    -18.576  0.0000E+00  0.0000E+00
    -18.504  0.0000E+00  0.0000E+00
    -18.432  0.0000E+00  0.0000E+00
    -18.360  0.0000E+00  0.0000E+00
    -18.288  0.0000E+00  0.0000E+00
    -18.216  0.0000E+00  0.0000E+00
    -18.144  0.0000E+00  0.0000E+00
    -18.072  0.0000E+00  0.0000E+00
    -18.000  0.1311E-13  0.9437E-15
    -17.928  0.7238E-12  0.5306E-13
    -17.856  0.3118E-10  0.2298E-11
    -17.784  0.1040E-08  0.7717E-10
    -17.713  0.2686E-07  0.2011E-08
    -17.641  0.5372E-06  0.4069E-07
    -17.569  0.8323E-05  0.6399E-06
    -17.497  0.9991E-04  0.7833E-05
    -17.425  0.9295E-03  0.7475E-04
    -17.353  0.6703E-02  0.5574E-03
    -17.281  0.3748E-01  0.3256E-02
    -17.209  0.1625E+00  0.1496E-01
    -17.137  0.5466E+00  0.5431E-01
    -17.065  0.1426E+01  0.1570E+00
    -16.993  0.2887E+01  0.3648E+00
    -16.921  0.4534E+01  0.6912E+00
    -16.850  0.5526E+01  0.1089E+01
    -16.778  0.5226E+01  0.1465E+01
    -16.706  0.3836E+01  0.1741E+01
    -16.634  0.2185E+01  0.1899E+01
    -16.562  0.9655E+00  0.1968E+01
    -16.490  0.3310E+00  0.1992E+01
    -16.418  0.8804E-01  0.1998E+01
    -16.346  0.1816E-01  0.2000E+01
    -16.274  0.2906E-02  0.2000E+01
    -16.202  0.3604E-03  0.2000E+01
    -16.130  0.3465E-04  0.2000E+01
    -16.058  0.2582E-05  0.2000E+01
    -15.986  0.1491E-06  0.2000E+01
    -15.915  0.6668E-08  0.2000E+01
    -15.843  0.2310E-09  0.2000E+01
    -15.771  0.6197E-11  0.2000E+01
    -15.699  0.1299E-12  0.2000E+01
    -15.627  0.9261E-15  0.2000E+01
    -15.555  0.0000E+00  0.2000E+01
    -15.483  0.0000E+00  0.2000E+01
    -15.411  0.0000E+00  0.2000E+01
    -15.339  0.0000E+00  0.2000E+01
    -15.267  0.0000E+00  0.2000E+01
    -15.195  0.0000E+00  0.2000E+01
    -15.123  0.0000E+00  0.2000E+01
    -15.051  0.0000E+00  0.2000E+01
    -14.980  0.0000E+00  0.2000E+01
    -14.908  0.0000E+00  0.2000E+01
    -14.836  0.0000E+00  0.2000E+01
    -14.764  0.0000E+00  0.2000E+01
    -14.692  0.0000E+00  0.2000E+01
    -14.620  0.0000E+00  0.2000E+01
    -14.548  0.0000E+00  0.2000E+01
    -14.476  0.0000E+00  0.2000E+01
    -14.404  0.0000E+00  0.2000E+01
    -14.332  0.0000E+00  0.2000E+01
    -14.260  0.0000E+00  0.2000E+01
    -14.188  0.0000E+00  0.2000E+01
    -14.117  0.0000E+00  0.2000E+01
    -14.045  0.0000E+00  0.2000E+01
    -13.973  0.0000E+00  0.2000E+01
    -13.901  0.0000E+00  0.2000E+01
    -13.829  0.0000E+00  0.2000E+01
    -13.757  0.0000E+00  0.2000E+01
    -13.685  0.0000E+00  0.2000E+01
    -13.613  0.0000E+00  0.2000E+01
    -13.541  0.0000E+00  0.2000E+01
    -13.469  0.0000E+00  0.2000E+01
    -13.397  0.0000E+00  0.2000E+01
    -13.325  0.0000E+00  0.2000E+01
    -13.253  0.0000E+00  0.2000E+01
    -13.182  0.0000E+00  0.2000E+01
    -13.110  0.0000E+00  0.2000E+01
    -13.038  0.0000E+00  0.2000E+01
    -12.966  0.0000E+00  0.2000E+01
    -12.894  0.0000E+00  0.2000E+01
    -12.822  0.0000E+00  0.2000E+01
    -12.750  0.0000E+00  0.2000E+01
    -12.678  0.0000E+00  0.2000E+01
    -12.606  0.0000E+00  0.2000E+01
    -12.534  0.0000E+00  0.2000E+01
    -12.462  0.0000E+00  0.2000E+01
    -12.390  0.0000E+00  0.2000E+01
    -12.318  0.0000E+00  0.2000E+01
    -12.247  0.0000E+00  0.2000E+01
    -12.175  0.0000E+00  0.2000E+01
    -12.103  0.0000E+00  0.2000E+01
    -12.031  0.0000E+00  0.2000E+01
    -11.959  0.0000E+00  0.2000E+01
    -11.887  0.0000E+00  0.2000E+01
    -11.815  0.0000E+00  0.2000E+01
    -11.743  0.0000E+00  0.2000E+01
    -11.671  0.0000E+00  0.2000E+01
    -11.599  0.0000E+00  0.2000E+01
    -11.527  0.0000E+00  0.2000E+01
    -11.455  0.0000E+00  0.2000E+01
    -11.383  0.0000E+00  0.2000E+01
    -11.312  0.0000E+00  0.2000E+01
    -11.240  0.0000E+00  0.2000E+01
    -11.168  0.0000E+00  0.2000E+01
    -11.096  0.0000E+00  0.2000E+01
    -11.024  0.0000E+00  0.2000E+01
    -10.952  0.0000E+00  0.2000E+01
    -10.880  0.0000E+00  0.2000E+01
    -10.808  0.0000E+00  0.2000E+01
    -10.736  0.0000E+00  0.2000E+01
    -10.664  0.0000E+00  0.2000E+01
    -10.592  0.0000E+00  0.2000E+01
    -10.520  0.3546E-14  0.2000E+01
    -10.449  0.2052E-12  0.2000E+01
    -10.377  0.9623E-11  0.2000E+01
    -10.305  0.3493E-09  0.2000E+01
    -10.233  0.9833E-08  0.2000E+01
    -10.161  0.2149E-06  0.2000E+01
    -10.089  0.3648E-05  0.2000E+01
    -10.017  0.4818E-04  0.2000E+01
     -9.945  0.4955E-03  0.2000E+01
     -9.873  0.3975E-02  0.2000E+01
     -9.801  0.2493E-01  0.2002E+01
     -9.729  0.1226E+00  0.2011E+01
     -9.657  0.4742E+00  0.2045E+01
     -9.585  0.1450E+01  0.2149E+01
     -9.514  0.3527E+01  0.2403E+01
     -9.442  0.6871E+01  0.2898E+01
     -9.370  0.1082E+02  0.3677E+01
     -9.298  0.1390E+02  0.4678E+01
     -9.226  0.1468E+02  0.5735E+01
     -9.154  0.1280E+02  0.6656E+01
     -9.082  0.9209E+01  0.7319E+01
     -9.010  0.5436E+01  0.7710E+01
     -8.938  0.2610E+01  0.7898E+01
     -8.866  0.1009E+01  0.7971E+01
     -8.794  0.3112E+00  0.7993E+01
     -8.722  0.7600E-01  0.7999E+01
     -8.650  0.1461E-01  0.8000E+01
     -8.579  0.2203E-02  0.8000E+01
     -8.507  0.2594E-03  0.8000E+01
     -8.435  0.2382E-04  0.8000E+01
     -8.363  0.1702E-05  0.8000E+01
     -8.291  0.9449E-07  0.8000E+01
     -8.219  0.4075E-08  0.8000E+01
     -8.147  0.1364E-09  0.8000E+01
     -8.075  0.3540E-11  0.8000E+01
     -8.003  0.7168E-13  0.8000E+01
     -7.931  0.3081E-15  0.8000E+01
     -7.859  0.0000E+00  0.8000E+01
     -7.787  0.0000E+00  0.8000E+01
     -7.715  0.0000E+00  0.8000E+01
     -7.644  0.0000E+00  0.8000E+01
     -7.572  0.0000E+00  0.8000E+01
     -7.500  0.0000E+00  0.8000E+01
     -7.428  0.0000E+00  0.8000E+01
     -7.356  0.0000E+00  0.8000E+01
     -7.284  0.0000E+00  0.8000E+01
     -7.212  0.0000E+00  0.8000E+01
     -7.140  0.0000E+00  0.8000E+01
     -7.068  0.0000E+00  0.8000E+01
     -6.996  0.0000E+00  0.8000E+01
     -6.924  0.0000E+00  0.8000E+01
     -6.852  0.0000E+00  0.8000E+01
     -6.781  0.0000E+00  0.8000E+01
     -6.709  0.0000E+00  0.8000E+01
     -6.637  0.0000E+00  0.8000E+01
     -6.565  0.0000E+00  0.8000E+01
     -6.493  0.0000E+00  0.8000E+01
     -6.421  0.0000E+00  0.8000E+01
     -6.349  0.0000E+00  0.8000E+01
     -6.277  0.0000E+00  0.8000E+01
     -6.205  0.0000E+00  0.8000E+01
     -6.133  0.0000E+00  0.8000E+01
     -6.061  0.0000E+00  0.8000E+01
     -5.989  0.0000E+00  0.8000E+01
     -5.917  0.0000E+00  0.8000E+01
     -5.846  0.0000E+00  0.8000E+01
     -5.774  0.0000E+00  0.8000E+01
     -5.702  0.0000E+00  0.8000E+01
     -5.630  0.0000E+00  0.8000E+01
     -5.558  0.0000E+00  0.8000E+01
     -5.486  0.0000E+00  0.8000E+01
     -5.414  0.0000E+00  0.8000E+01
     -5.342  0.0000E+00  0.8000E+01
     -5.270  0.0000E+00  0.8000E+01
     -5.198  0.0000E+00  0.8000E+01
     -5.126  0.0000E+00  0.8000E+01
     -5.054  0.0000E+00  0.8000E+01
     -4.982  0.0000E+00  0.8000E+01
     -4.911  0.0000E+00  0.8000E+01
     -4.839  0.0000E+00  0.8000E+01
     -4.767  0.0000E+00  0.8000E+01
     -4.695  0.0000E+00  0.8000E+01
     -4.623  0.0000E+00  0.8000E+01
     -4.551  0.0000E+00  0.8000E+01
     -4.479  0.0000E+00  0.8000E+01
     -4.407  0.0000E+00  0.8000E+01
     -4.335  0.0000E+00  0.8000E+01
     -4.263  0.0000E+00  0.8000E+01
     -4.191  0.0000E+00  0.8000E+01
     -4.119  0.0000E+00  0.8000E+01
     -4.047  0.0000E+00  0.8000E+01
     -3.976  0.0000E+00  0.8000E+01
     -3.904  0.0000E+00  0.8000E+01
     -3.832  0.0000E+00  0.8000E+01
     -3.760  0.0000E+00  0.8000E+01
     -3.688  0.0000E+00  0.8000E+01
     -3.616  0.0000E+00  0.8000E+01
     -3.544  0.0000E+00  0.8000E+01
     -3.472  0.0000E+00  0.8000E+01
     -3.400  0.0000E+00  0.8000E+01
     -3.328  0.0000E+00  0.8000E+01
     -3.256  0.0000E+00  0.8000E+01
     -3.184  0.0000E+00  0.8000E+01
     -3.113  0.0000E+00  0.8000E+01
     -3.041  0.0000E+00  0.8000E+01
     -2.969  0.0000E+00  0.8000E+01
     -2.897  0.0000E+00  0.8000E+01
     -2.825  0.0000E+00  0.8000E+01
     -2.753  0.0000E+00  0.8000E+01
     -2.681  0.0000E+00  0.8000E+01
     -2.609  0.0000E+00  0.8000E+01
     -2.537  0.0000E+00  0.8000E+01
     -2.465  0.0000E+00  0.8000E+01
     -2.393  0.0000E+00  0.8000E+01
     -2.321  0.0000E+00  0.8000E+01
     -2.249  0.0000E+00  0.8000E+01
     -2.178  0.0000E+00  0.8000E+01
     -2.106  0.0000E+00  0.8000E+01
     -2.034  0.0000E+00  0.8000E+01
     -1.962  0.0000E+00  0.8000E+01
     -1.890  0.0000E+00  0.8000E+01
     -1.818  0.0000E+00  0.8000E+01
     -1.746  0.0000E+00  0.8000E+01
     -1.674  0.0000E+00  0.8000E+01
     -1.602  0.0000E+00  0.8000E+01
     -1.530  0.0000E+00  0.8000E+01
     -1.458  0.7133E-14  0.8000E+01
     -1.386  0.4022E-12  0.8000E+01
     -1.314  0.1798E-10  0.8000E+01
     -1.243  0.6219E-09  0.8000E+01
     -1.171  0.1666E-07  0.8000E+01
     -1.099  0.3459E-06  0.8000E+01
     -1.027  0.5564E-05  0.8000E+01
     -0.955  0.6937E-04  0.8000E+01
     -0.883  0.6704E-03  0.8000E+01
     -0.811  0.5023E-02  0.8000E+01
     -0.739  0.2919E-01  0.8003E+01
     -0.667  0.1316E+00  0.8012E+01
     -0.595  0.4601E+00  0.8045E+01
     -0.523  0.1248E+01  0.8135E+01
     -0.451  0.2628E+01  0.8324E+01
     -0.380  0.4295E+01  0.8633E+01
     -0.308  0.5446E+01  0.9025E+01
     -0.236  0.5360E+01  0.9411E+01
     -0.164  0.4095E+01  0.9706E+01
     -0.092  0.2427E+01  0.9881E+01
     -0.020  0.1117E+01  0.9961E+01
      0.052  0.4023E+00  0.9990E+01
      0.124  0.1335E+00  0.1000E+02
      0.196  0.1372E+00  0.1001E+02
      0.268  0.4433E+00  0.1004E+02
      0.340  0.1353E+01  0.1014E+02
      0.412  0.3338E+01  0.1038E+02
      0.484  0.6654E+01  0.1086E+02
      0.555  0.1078E+02  0.1163E+02
      0.627  0.1423E+02  0.1266E+02
      0.699  0.1529E+02  0.1376E+02
      0.771  0.1330E+02  0.1472E+02
      0.843  0.9291E+01  0.1539E+02
      0.915  0.5178E+01  0.1576E+02
      0.987  0.2286E+01  0.1592E+02
      1.059  0.7948E+00  0.1598E+02
      1.131  0.2168E+00  0.1600E+02
      1.203  0.4628E-01  0.1600E+02
      1.275  0.7710E-02  0.1600E+02
      1.347  0.1001E-02  0.1600E+02
      1.419  0.1012E-03  0.1600E+02
      1.490  0.7958E-05  0.1600E+02
      1.562  0.4865E-06  0.1600E+02
      1.634  0.2311E-07  0.1600E+02
      1.706  0.8522E-09  0.1600E+02
      1.778  0.2440E-10  0.1600E+02
      1.850  0.5428E-12  0.1600E+02
      1.922  0.8790E-14  0.1600E+02
      1.994  0.0000E+00  0.1600E+02
      2.066  0.0000E+00  0.1600E+02
      2.138  0.0000E+00  0.1600E+02
      2.210  0.0000E+00  0.1600E+02
      2.282  0.0000E+00  0.1600E+02
      2.354  0.0000E+00  0.1600E+02
      2.425  0.0000E+00  0.1600E+02
      2.497  0.0000E+00  0.1600E+02
      2.569  0.0000E+00  0.1600E+02
      2.641  0.0000E+00  0.1600E+02
      2.713  0.0000E+00  0.1600E+02
      2.72012633    -18.86197944  301     -8.21473700      1.00000000
    -18.862  0.0000E+00  0.0000E+00
    -18.790  0.0000E+00  0.0000E+00
    -18.718  0.0000E+00  0.0000E+00
    -18.646  0.0000E+00  0.0000E+00
    -18.574  0.0000E+00  0.0000E+00
    -18.502  0.0000E+00  0.0000E+00
    -18.430  0.0000E+00  0.0000E+00
    -18.358  0.0000E+00  0.0000E+00
    -18.286  0.0000E+00  0.0000E+00
    -18.215  0.0000E+00  0.0000E+00
    -18.143  0.0000E+00  0.0000E+00
    -18.071  0.0000E+00  0.0000E+00
    -17.999  0.1235E-14  0.8882E-16
    -17.927  0.6968E-13  0.5101E-14
    -17.855  0.3001E-11  0.2210E-12
    -17.783  0.1001E-09  0.7424E-11
    -17.711  0.2587E-08  0.1935E-09
    -17.639  0.5179E-07  0.3919E-08
    -17.567  0.8035E-06  0.6172E-07
    -17.495  0.9662E-05  0.7568E-06
    -17.423  0.9008E-04  0.7237E-05
    -17.351  0.6512E-03  0.5408E-04
    -17.279  0.3652E-02  0.3168E-03
    -17.207  0.1588E-01  0.1459E-02
    -17.135  0.5361E-01  0.5316E-02
    -17.063  0.1404E+00  0.1542E-01
    -16.992  0.2855E+00  0.3596E-01
    -16.920  0.4505E+00  0.6836E-01
    -16.848  0.5518E+00  0.1081E+00
    -16.776  0.5247E+00  0.1458E+00
    -16.704  0.3873E+00  0.1737E+00
    -16.632  0.2219E+00  0.1896E+00
    -16.560  0.9869E-01  0.1967E+00
    -16.488  0.3406E-01  0.1992E+00
    -16.416  0.9123E-02  0.1998E+00
    -16.344  0.1896E-02  0.2000E+00
    -16.272  0.3056E-03  0.2000E+00
    -16.200  0.3820E-04  0.2000E+00
    -16.128  0.3703E-05  0.2000E+00
    -16.056  0.2783E-06  0.2000E+00
    -15.984  0.1621E-07  0.2000E+00
    -15.912  0.7314E-09  0.2000E+00
    -15.840  0.2557E-10  0.2000E+00
    -15.769  0.6925E-12  0.2000E+00
    -15.697  0.1451E-13  0.2000E+00
    -15.625  0.3087E-15  0.2000E+00
    -15.553  0.0000E+00  0.2000E+00
    -15.481  0.0000E+00  0.2000E+00
    -15.409  0.0000E+00  0.2000E+00
    -15.337  0.0000E+00  0.2000E+00
    -15.265  0.0000E+00  0.2000E+00
    -15.193  0.0000E+00  0.2000E+00
    -15.121  0.0000E+00  0.2000E+00
    -15.049  0.0000E+00  0.2000E+00
    -14.977  0.0000E+00  0.2000E+00
    -14.905  0.0000E+00  0.2000E+00
    -14.833  0.0000E+00  0.2000E+00
    -14.761  0.0000E+00  0.2000E+00
    -14.689  0.0000E+00  0.2000E+00
    -14.617  0.0000E+00  0.2000E+00
    -14.546  0.0000E+00  0.2000E+00
    -14.474  0.0000E+00  0.2000E+00
    -14.402  0.0000E+00  0.2000E+00
    -14.330  0.0000E+00  0.2000E+00
    -14.258  0.0000E+00  0.2000E+00
    -14.186  0.0000E+00  0.2000E+00
    -14.114  0.0000E+00  0.2000E+00
    -14.042  0.0000E+00  0.2000E+00
    -13.970  0.0000E+00  0.2000E+00
    -13.898  0.0000E+00  0.2000E+00
    -13.826  0.0000E+00  0.2000E+00
    -13.754  0.0000E+00  0.2000E+00
    -13.682  0.0000E+00  0.2000E+00
    -13.610  0.0000E+00  0.2000E+00
    -13.538  0.0000E+00  0.2000E+00
    -13.466  0.0000E+00  0.2000E+00
    -13.395  0.0000E+00  0.2000E+00
    -13.323  0.0000E+00  0.2000E+00
    -13.251  0.0000E+00  0.2000E+00
    -13.179  0.0000E+00  0.2000E+00
    -13.107  0.0000E+00  0.2000E+00
    -13.035  0.0000E+00  0.2000E+00
    -12.963  0.0000E+00  0.2000E+00
    -12.891  0.0000E+00  0.2000E+00
    -12.819  0.0000E+00  0.2000E+00
    -12.747  0.0000E+00  0.2000E+00
    -12.675  0.0000E+00  0.2000E+00
    -12.603  0.0000E+00  0.2000E+00
    -12.531  0.0000E+00  0.2000E+00
    -12.459  0.0000E+00  0.2000E+00
    -12.387  0.0000E+00  0.2000E+00
    -12.315  0.0000E+00  0.2000E+00
    -12.243  0.0000E+00  0.2000E+00
    -12.172  0.0000E+00  0.2000E+00
    -12.100  0.0000E+00  0.2000E+00
    -12.028  0.0000E+00  0.2000E+00
    -11.956  0.0000E+00  0.2000E+00
    -11.884  0.0000E+00  0.2000E+00
    -11.812  0.0000E+00  0.2000E+00
    -11.740  0.0000E+00  0.2000E+00
    -11.668  0.0000E+00  0.2000E+00
    -11.596  0.0000E+00  0.2000E+00
    -11.524  0.0000E+00  0.2000E+00
    -11.452  0.0000E+00  0.2000E+00
    -11.380  0.0000E+00  0.2000E+00
    -11.308  0.0000E+00  0.2000E+00
    -11.236  0.0000E+00  0.2000E+00
    -11.164  0.0000E+00  0.2000E+00
    -11.092  0.0000E+00  0.2000E+00
    -11.020  0.0000E+00  0.2000E+00
    -10.949  0.0000E+00  0.2000E+00
    -10.877  0.0000E+00  0.2000E+00
    -10.805  0.0000E+00  0.2000E+00
    -10.733  0.0000E+00  0.2000E+00
    -10.661  0.0000E+00  0.2000E+00
    -10.589  0.0000E+00  0.2000E+00
    -10.517  0.3087E-15  0.2000E+00
    -10.445  0.1829E-13  0.2000E+00
    -10.373  0.8646E-12  0.2000E+00
    -10.301  0.3161E-10  0.2000E+00
    -10.229  0.8966E-09  0.2000E+00
    -10.157  0.1974E-07  0.2000E+00
    -10.085  0.3376E-06  0.2000E+00
    -10.013  0.4491E-05  0.2000E+00
     -9.941  0.4653E-04  0.2000E+00
     -9.869  0.3762E-03  0.2000E+00
     -9.797  0.2378E-02  0.2002E+00
     -9.726  0.1180E-01  0.2011E+00
     -9.654  0.4607E-01  0.2044E+00
     -9.582  0.1424E+00  0.2146E+00
     -9.510  0.3504E+00  0.2398E+00
     -9.438  0.6910E+00  0.2895E+00
     -9.366  0.1100E+01  0.3687E+00
     -9.294  0.1423E+01  0.4710E+00
     -9.222  0.1501E+01  0.5790E+00
     -9.150  0.1293E+01  0.6721E+00
     -9.078  0.9076E+00  0.7374E+00
     -9.006  0.5161E+00  0.7745E+00
     -8.934  0.2361E+00  0.7915E+00
     -8.862  0.8633E-01  0.7977E+00
     -8.790  0.2506E-01  0.7995E+00
     -8.718  0.5742E-02  0.7999E+00
     -8.646  0.1034E-02  0.8000E+00
     -8.575  0.1459E-03  0.8000E+00
     -8.503  0.1608E-04  0.8000E+00
     -8.431  0.1381E-05  0.8000E+00
     -8.359  0.9234E-07  0.8000E+00
     -8.287  0.4799E-08  0.8000E+00
     -8.215  0.1937E-09  0.8000E+00
     -8.143  0.6066E-11  0.8000E+00
     -8.071  0.1476E-12  0.8000E+00
     -7.999  0.2778E-14  0.8000E+00
     -7.927  0.0000E+00  0.8000E+00
     -7.855  0.0000E+00  0.8000E+00
     -7.783  0.0000E+00  0.8000E+00
     -7.711  0.0000E+00  0.8000E+00
     -7.639  0.0000E+00  0.8000E+00
     -7.567  0.0000E+00  0.8000E+00
     -7.495  0.0000E+00  0.8000E+00
     -7.423  0.0000E+00  0.8000E+00
     -7.352  0.0000E+00  0.8000E+00
     -7.280  0.0000E+00  0.8000E+00
     -7.208  0.0000E+00  0.8000E+00
     -7.136  0.0000E+00  0.8000E+00
     -7.064  0.0000E+00  0.8000E+00
     -6.992  0.0000E+00  0.8000E+00
     -6.920  0.0000E+00  0.8000E+00
     -6.848  0.0000E+00  0.8000E+00
     -6.776  0.0000E+00  0.8000E+00
     -6.704  0.0000E+00  0.8000E+00
     -6.632  0.0000E+00  0.8000E+00
     -6.560  0.0000E+00  0.8000E+00
     -6.488  0.0000E+00  0.8000E+00
     -6.416  0.0000E+00  0.8000E+00
     -6.344  0.0000E+00  0.8000E+00
     -6.272  0.0000E+00  0.8000E+00
     -6.200  0.0000E+00  0.8000E+00
     -6.129  0.0000E+00  0.8000E+00
     -6.057  0.0000E+00  0.8000E+00
     -5.985  0.0000E+00  0.8000E+00
     -5.913  0.0000E+00  0.8000E+00
     -5.841  0.0000E+00  0.8000E+00
     -5.769  0.0000E+00  0.8000E+00
     -5.697  0.0000E+00  0.8000E+00
     -5.625  0.0000E+00  0.8000E+00
     -5.553  0.0000E+00  0.8000E+00
     -5.481  0.0000E+00  0.8000E+00
     -5.409  0.0000E+00  0.8000E+00
     -5.337  0.0000E+00  0.8000E+00
     -5.265  0.0000E+00  0.8000E+00
     -5.193  0.0000E+00  0.8000E+00
     -5.121  0.0000E+00  0.8000E+00
     -5.049  0.0000E+00  0.8000E+00
     -4.977  0.0000E+00  0.8000E+00
     -4.906  0.0000E+00  0.8000E+00
     -4.834  0.0000E+00  0.8000E+00
     -4.762  0.0000E+00  0.8000E+00
     -4.690  0.0000E+00  0.8000E+00
     -4.618  0.0000E+00  0.8000E+00
     -4.546  0.0000E+00  0.8000E+00
     -4.474  0.0000E+00  0.8000E+00
     -4.402  0.0000E+00  0.8000E+00
     -4.330  0.0000E+00  0.8000E+00
     -4.258  0.0000E+00  0.8000E+00
     -4.186  0.0000E+00  0.8000E+00
     -4.114  0.0000E+00  0.8000E+00
     -4.042  0.0000E+00  0.8000E+00
     -3.970  0.0000E+00  0.8000E+00
     -3.898  0.0000E+00  0.8000E+00
     -3.826  0.0000E+00  0.8000E+00
     -3.755  0.0000E+00  0.8000E+00
     -3.683  0.0000E+00  0.8000E+00
     -3.611  0.0000E+00  0.8000E+00
     -3.539  0.0000E+00  0.8000E+00
     -3.467  0.0000E+00  0.8000E+00
     -3.395  0.0000E+00  0.8000E+00
     -3.323  0.0000E+00  0.8000E+00
     -3.251  0.0000E+00  0.8000E+00
     -3.179  0.0000E+00  0.8000E+00
     -3.107  0.0000E+00  0.8000E+00
     -3.035  0.0000E+00  0.8000E+00
     -2.963  0.0000E+00  0.8000E+00
     -2.891  0.0000E+00  0.8000E+00
     -2.819  0.0000E+00  0.8000E+00
     -2.747  0.0000E+00  0.8000E+00
     -2.675  0.0000E+00  0.8000E+00
     -2.603  0.0000E+00  0.8000E+00
     -2.532  0.0000E+00  0.8000E+00
     -2.460  0.0000E+00  0.8000E+00
     -2.388  0.0000E+00  0.8000E+00
     -2.316  0.0000E+00  0.8000E+00
     -2.244  0.0000E+00  0.8000E+00
     -2.172  0.0000E+00  0.8000E+00
     -2.100  0.0000E+00  0.8000E+00
     -2.028  0.0000E+00  0.8000E+00
     -1.956  0.0000E+00  0.8000E+00
     -1.884  0.0000E+00  0.8000E+00
     -1.812  0.0000E+00  0.8000E+00
     -1.740  0.0000E+00  0.8000E+00
     -1.668  0.0000E+00  0.8000E+00
     -1.596  0.0000E+00  0.8000E+00
     -1.524  0.0000E+00  0.8000E+00
     -1.452  0.1235E-14  0.8000E+00
     -1.380  0.6609E-13  0.8000E+00
     -1.309  0.2855E-11  0.8000E+00
     -1.237  0.9551E-10  0.8000E+00
     -1.165  0.2475E-08  0.8000E+00
     -1.093  0.4970E-07  0.8000E+00
     -1.021  0.7734E-06  0.8000E+00
     -0.949  0.9330E-05  0.8000E+00
     -0.877  0.8727E-04  0.8000E+00
     -0.805  0.6331E-03  0.8001E+00
     -0.733  0.3562E-02  0.8003E+00
     -0.661  0.1555E-01  0.8014E+00
     -0.589  0.5269E-01  0.8052E+00
     -0.517  0.1385E+00  0.8152E+00
     -0.445  0.2827E+00  0.8355E+00
     -0.373  0.4480E+00  0.8678E+00
     -0.301  0.5510E+00  0.9074E+00
     -0.229  0.5261E+00  0.9452E+00
     -0.157  0.3900E+00  0.9733E+00
     -0.086  0.2245E+00  0.9894E+00
     -0.014  0.1003E+00  0.9967E+00
      0.058  0.3519E-01  0.9992E+00
      0.130  0.1190E-01  0.1000E+01
      0.202  0.1414E-01  0.1001E+01
      0.274  0.4645E-01  0.1004E+01
      0.346  0.1392E+00  0.1014E+01
      0.418  0.3374E+00  0.1039E+01
      0.490  0.6640E+00  0.1086E+01
      0.562  0.1068E+01  0.1163E+01
      0.634  0.1408E+01  0.1265E+01
      0.706  0.1518E+01  0.1374E+01
      0.778  0.1330E+01  0.1469E+01
      0.850  0.9386E+00  0.1537E+01
      0.922  0.5287E+00  0.1575E+01
      0.994  0.2359E+00  0.1592E+01
      1.065  0.8287E-01  0.1598E+01
      1.137  0.2283E-01  0.1600E+01
      1.209  0.4916E-02  0.1600E+01
      1.281  0.8259E-03  0.1600E+01
      1.353  0.1081E-03  0.1600E+01
      1.425  0.1101E-04  0.1600E+01
      1.497  0.8714E-06  0.1600E+01
      1.569  0.5361E-07  0.1600E+01
      1.641  0.2562E-08  0.1600E+01
      1.713  0.9502E-10  0.1600E+01
      1.785  0.2736E-11  0.1600E+01
      1.857  0.6119E-13  0.1600E+01
      1.929  0.9260E-15  0.1600E+01
      2.001  0.0000E+00  0.1600E+01
      2.073  0.0000E+00  0.1600E+01
      2.145  0.0000E+00  0.1600E+01
      2.217  0.0000E+00  0.1600E+01
      2.288  0.0000E+00  0.1600E+01
      2.360  0.0000E+00  0.1600E+01
      2.432  0.0000E+00  0.1600E+01
      2.504  0.0000E+00  0.1600E+01
      2.576  0.0000E+00  0.1600E+01
      2.648  0.0000E+00  0.1600E+01
      2.720  0.0000E+00  0.1600E+01
