    5    5   10    1
  0.1995418E+03  0.9900849E-09  0.1019575E-08  0.9886973E-09  0.5000000E-15
  1.000000000000000E-004
  CAR 
 unknown system                          
      8      4      8
 
  0.2500000E+00  0.2500000E+00  0.2500000E+00  0.2500000E+00
    1      -16.861940   1.000000
    2       -9.355547   1.000000
    3       -9.274915   1.000000
    4       -9.193851   1.000000
    5       -0.311838   0.000000
    6        0.564591   0.000000
    7        0.678924   0.000000
    8        0.707715   0.000000
 
 -0.2500000E+00  0.2500000E+00  0.2500000E+00  0.2500000E+00
    1      -16.861979   1.000000
    2       -9.355572   1.000000
    3       -9.275075   1.000000
    4       -9.193982   1.000000
    5       -0.318778   0.000000
    6        0.577998   0.000000
    7        0.694466   0.000000
    8        0.720126   0.000000
 
  0.2500000E+00 -0.2500000E+00  0.2500000E+00  0.2500000E+00
    1      -16.861949   1.000000
    2       -9.355553   1.000000
    3       -9.274964   1.000000
    4       -9.193915   1.000000
    5       -0.311884   0.000000
    6        0.551694   0.000000
    7        0.683643   0.000000
    8        0.713169   0.000000
 
 -0.2500000E+00 -0.2500000E+00  0.2500000E+00  0.2500000E+00
    1      -16.861976   1.000000
    2       -9.355594   1.000000
    3       -9.275024   1.000000
    4       -9.194015   1.000000
    5       -0.315439   0.000000
    6        0.575438   0.000000
    7        0.688525   0.000000
    8        0.712142   0.000000
