       N       E                     dE             d eps       ncg     rms          rms(c)
DAV:   1     0.275230326697E+02    0.27523E+02   -0.19297E+03    88   0.413E+02
DAV:   2    -0.187698889573E+02   -0.46293E+02   -0.39522E+02    80   0.105E+02
DAV:   3    -0.270101584526E+02   -0.82403E+01   -0.82403E+01    64   0.516E+01
DAV:   4    -0.275697996526E+02   -0.55964E+00   -0.55964E+00   112   0.147E+01
DAV:   5    -0.275798884378E+02   -0.10089E-01   -0.10089E-01   104   0.131E+00    0.876E+00
RMM:   6    -0.246573600320E+02    0.29225E+01   -0.54211E+00    64   0.143E+01    0.431E+00
RMM:   7    -0.241594063349E+02    0.49795E+00   -0.12355E+00    64   0.643E+00    0.229E+00
RMM:   8    -0.240125500425E+02    0.14686E+00   -0.16261E-01    64   0.289E+00    0.226E-01
RMM:   9    -0.240068576509E+02    0.56924E-02   -0.11094E-02    64   0.699E-01    0.196E-01
RMM:  10    -0.240006981956E+02    0.61595E-02   -0.24191E-02    64   0.849E-01    0.278E-01
RMM:  11    -0.240013235974E+02   -0.62540E-03   -0.74050E-03    64   0.538E-01    0.751E-02
RMM:  12    -0.240110264071E+02   -0.97028E-02   -0.38290E-03    64   0.383E-01    0.126E-01
RMM:  13    -0.240114714428E+02   -0.44504E-03   -0.89245E-04    64   0.167E-01    0.539E-02
RMM:  14    -0.240143278421E+02   -0.28564E-02   -0.16318E-03    64   0.248E-01    0.369E-02
RMM:  15    -0.240145713422E+02   -0.24350E-03   -0.93280E-05    64   0.600E-02    0.128E-02
RMM:  16    -0.240147753470E+02   -0.20400E-03   -0.94711E-05    64   0.597E-02    0.892E-03
RMM:  17    -0.240148066932E+02   -0.31346E-04   -0.35701E-05    64   0.336E-02    0.462E-03
RMM:  18    -0.240148185947E+02   -0.11902E-04   -0.37186E-06    60   0.115E-02    0.612E-04
RMM:  19    -0.240148220509E+02   -0.34562E-05   -0.31506E-07    48   0.389E-03    0.207E-04
RMM:  20    -0.240148231111E+02   -0.10602E-05   -0.61142E-08    44   0.205E-03    0.146E-04
RMM:  21    -0.240148236377E+02   -0.52666E-06    0.00000E+00    32   0.150E-03
    1 T=     0. E= -.24014568E+02 F= -.24014824E+02 E0= -.24014824E+02  EK= 0.25552E-03 SP= 0.00E+00 SK= 0.00E+00
       N       E                     dE             d eps       ncg     rms          rms(c)
DAV:   1    -0.240167759888E+02   -0.19529E-02   -0.21315E-03    64   0.456E-01    0.193E-02
RMM:   2    -0.240167774241E+02   -0.14353E-05   -0.80724E-05    64   0.766E-02    0.131E-02
RMM:   3    -0.240167764152E+02    0.10089E-05   -0.10467E-05    64   0.252E-02    0.332E-03
RMM:   4    -0.240167763443E+02    0.70908E-07   -0.32593E-07    48   0.574E-03
    2 T=     4. E= -.24014609E+02 F= -.24016776E+02 E0= -.24016776E+02  EK= 0.21676E-02 SP= 0.00E+00 SK= 0.00E+00
       N       E                     dE             d eps       ncg     rms          rms(c)
DAV:   1    -0.240200316221E+02   -0.32552E-02   -0.16895E-03    64   0.423E-01    0.800E-03
RMM:   2    -0.240200440025E+02   -0.12380E-04   -0.12735E-04    64   0.961E-02    0.223E-03
RMM:   3    -0.240200451557E+02   -0.11531E-05   -0.48382E-06    52   0.186E-02    0.239E-03
RMM:   4    -0.240200452975E+02   -0.14186E-06   -0.59816E-07    48   0.766E-03
    3 T=    10. E= -.24014674E+02 F= -.24020045E+02 E0= -.24020045E+02  EK= 0.53717E-02 SP= 0.00E+00 SK= 0.00E+00
       N       E                     dE             d eps       ncg     rms          rms(c)
DAV:   1    -0.240235910477E+02   -0.35459E-02   -0.56262E-04    64   0.220E-01    0.312E-03
RMM:   2    -0.240235945251E+02   -0.34774E-05   -0.25540E-05    64   0.344E-02    0.445E-03
RMM:   3    -0.240235944672E+02    0.57881E-07   -0.12144E-06    48   0.989E-03    0.473E-03
RMM:   4    -0.240235942856E+02    0.18160E-06   -0.20550E-07    48   0.409E-03
    4 T=    17. E= -.24014744E+02 F= -.24023594E+02 E0= -.24023594E+02  EK= 0.88505E-02 SP= 0.00E+00 SK= 0.00E+00
       N       E                     dE             d eps       ncg     rms          rms(c)
DAV:   1    -0.240263522550E+02   -0.27578E-02   -0.11347E-03    64   0.315E-01    0.416E-02
RMM:   2    -0.240263329245E+02    0.19330E-04   -0.10275E-04    64   0.906E-02    0.232E-02
RMM:   3    -0.240263316835E+02    0.12411E-05   -0.11211E-04    64   0.626E-02    0.750E-03
RMM:   4    -0.240263306421E+02    0.10413E-05   -0.40771E-06    61   0.146E-02    0.351E-03
RMM:   5    -0.240263331563E+02   -0.25141E-05   -0.15978E-05    64   0.232E-02    0.551E-03
RMM:   6    -0.240263319972E+02    0.11590E-05   -0.10823E-06    48   0.680E-03    0.269E-03
RMM:   7    -0.240263337808E+02   -0.17836E-05   -0.36212E-06    60   0.116E-02    0.122E-03
RMM:   8    -0.240263341641E+02   -0.38330E-06   -0.25892E-07    48   0.424E-03
    5 T=    22. E= -.24014793E+02 F= -.24026334E+02 E0= -.24026334E+02  EK= 0.11541E-01 SP= 0.00E+00 SK= 0.00E+00
       N       E                     dE             d eps       ncg     rms          rms(c)
DAV:   1    -0.240274930273E+02   -0.11592E-02   -0.12794E-03    64   0.294E-01    0.478E-02
RMM:   2    -0.240274696393E+02    0.23388E-04   -0.12357E-04    64   0.929E-02    0.271E-02
RMM:   3    -0.240274836397E+02   -0.14000E-04   -0.13322E-04    64   0.689E-02    0.828E-03
RMM:   4    -0.240274826165E+02    0.10232E-05   -0.72767E-06    64   0.182E-02    0.478E-03
RMM:   5    -0.240274916438E+02   -0.90273E-05   -0.15907E-05    64   0.229E-02    0.613E-03
RMM:   6    -0.240274905406E+02    0.11032E-05   -0.63459E-06    64   0.145E-02    0.499E-04
RMM:   7    -0.240274936635E+02   -0.31229E-05   -0.32701E-07    48   0.442E-03    0.620E-04
RMM:   8    -0.240274941767E+02   -0.51319E-06   -0.15052E-08    36   0.164E-03
    6 T=    25. E= -.24014808E+02 F= -.24027494E+02 E0= -.24027494E+02  EK= 0.12687E-01 SP= 0.00E+00 SK= 0.00E+00
       N       E                     dE             d eps       ncg     rms          rms(c)
DAV:   1    -0.240268269803E+02    0.66668E-03   -0.89111E-04    88   0.297E-01    0.185E-02
RMM:   2    -0.240268289178E+02   -0.19375E-05   -0.23001E-05    64   0.377E-02    0.953E-03
RMM:   3    -0.240268373341E+02   -0.84164E-05   -0.13243E-05    64   0.225E-02    0.236E-03
RMM:   4    -0.240268399626E+02   -0.26285E-05   -0.66264E-07    48   0.602E-03    0.129E-03
RMM:   5    -0.240268445848E+02   -0.46222E-05   -0.90461E-07    48   0.577E-03    0.113E-03
RMM:   6    -0.240268453162E+02   -0.73133E-06   -0.44839E-07    48   0.415E-03
    7 T=    23. E= -.24014780E+02 F= -.24026845E+02 E0= -.24026845E+02  EK= 0.12065E-01 SP= 0.00E+00 SK= 0.00E+00
       N       E                     dE             d eps       ncg     rms          rms(c)
DAV:   1    -0.240247595392E+02    0.20850E-02   -0.74618E-04    72   0.267E-01    0.213E-03
RMM:   2    -0.240247623246E+02   -0.27854E-05   -0.10206E-05    64   0.310E-02    0.200E-03
RMM:   3    -0.240247629223E+02   -0.59768E-06   -0.18839E-07    48   0.430E-03    0.180E-03
RMM:   4    -0.240247650825E+02   -0.21603E-05   -0.49943E-07    48   0.455E-03    0.423E-04
RMM:   5    -0.240247663552E+02   -0.12726E-05   -0.10772E-07    48   0.271E-03    0.344E-04
RMM:   6    -0.240247682187E+02   -0.18635E-05    0.00000E+00    32   0.134E-03    0.266E-04
RMM:   7    -0.240247711022E+02   -0.28836E-05   -0.21002E-07    44   0.263E-03    0.586E-04
RMM:   8    -0.240247711543E+02   -0.52089E-07   -0.93235E-08    44   0.200E-03
    8 T=    19. E= -.24014732E+02 F= -.24024771E+02 E0= -.24024771E+02  EK= 0.10040E-01 SP= 0.00E+00 SK= 0.00E+00
       N       E                     dE             d eps       ncg     rms          rms(c)
DAV:   1    -0.240220621479E+02    0.27090E-02   -0.50667E-04    64   0.227E-01    0.163E-03
RMM:   2    -0.240220651424E+02   -0.29945E-05   -0.50528E-06    64   0.203E-02    0.770E-04
RMM:   3    -0.240220676683E+02   -0.25259E-05   -0.19703E-07    48   0.388E-03    0.450E-04
RMM:   4    -0.240220713557E+02   -0.36873E-05   -0.69297E-08    44   0.200E-03    0.202E-04
RMM:   5    -0.240220785633E+02   -0.72077E-05   -0.36057E-07    44   0.302E-03    0.342E-04
RMM:   6    -0.240220793572E+02   -0.79386E-06   -0.65793E-08    40   0.176E-03
    9 T=    14. E= -.24014668E+02 F= -.24022079E+02 E0= -.24022079E+02  EK= 0.74110E-02 SP= 0.00E+00 SK= 0.00E+00
       N       E                     dE             d eps       ncg     rms          rms(c)
DAV:   1    -0.240197576716E+02    0.23209E-02   -0.23433E-04    72   0.177E-01    0.116E-03
RMM:   2    -0.240197585042E+02   -0.83255E-06   -0.27737E-06    56   0.200E-02    0.993E-04
RMM:   3    -0.240197588070E+02   -0.30285E-06   -0.17902E-07    47   0.424E-03    0.760E-04
RMM:   4    -0.240197597019E+02   -0.89480E-06   -0.21022E-07    48   0.354E-03
   10 T=    10. E= -.24014614E+02 F= -.24019760E+02 E0= -.24019760E+02  EK= 0.51454E-02 SP= 0.00E+00 SK= 0.00E+00
