 vasp.5.4.4.18Apr17-6-g9f103f2a35 (build Nov 25 2021 15:25:00) complex          
  
 executed on             LinuxIFC date 2022.02.21  10:17:49
 running on   16 total cores
 distrk:  each k-point on   16 cores,    1 groups
 distr:  one band on NCORES_PER_BAND=   4 cores,    4 groups


--------------------------------------------------------------------------------------------------------


 INCAR:
 POTCAR:    PAW_PBE H 15Jun2001                   
 POTCAR:    PAW_PBE C 08Apr2002                   
 POTCAR:    PAW_PBE H 15Jun2001                   
   VRHFIN =H: ultrasoft test                                                    
   LEXCH  = PE                                                                  
   EATOM  =    12.4884 eV,    0.9179 Ry                                         
                                                                                
   TITEL  = PAW_PBE H 15Jun2001                                                 
   LULTRA =        F    use ultrasoft PP ?                                      
   IUNSCR =        0    unscreen: 0-lin 1-nonlin 2-no                           
   RPACOR =    0.000    partial core radius                                     
   POMASS =    1.000; ZVAL   =    1.000    mass and valenz                      
   RCORE  =    1.100    outmost cutoff radius                                   
   RWIGS  =    0.700; RWIGS  =    0.370    wigner-seitz radius (au A)           
   ENMAX  =  250.000; ENMIN  =  200.000 eV                                      
   RCLOC  =    0.701    cutoff for local pot                                    
   LCOR   =        T    correct aug charges                                     
   LPAW   =        T    paw PP                                                  
   EAUG   =  400.000                                                            
   RMAX   =    1.123    core radius for proj-oper                               
   RAUG   =    1.200    factor for augmentation sphere                          
   RDEP   =    1.112    radius for radial grids                                 
   RDEPT  =    0.926    core radius for aug-charge                              
                                                                                
   Atomic configuration                                                         
    2 entries                                                                   
     n  l   j            E        occ.                                          
     1  0  0.50        -6.4927   1.0000                                         
     2  1  0.50        -3.4015   0.0000                                         
   Description                                                                  
     l       E           TYP  RCUT    TYP  RCUT                                 
     0     -6.4927494     23  1.100                                             
     0      6.8029130     23  1.100                                             
     1     -4.0817478     23  1.100                                             
  local pseudopotential read in
  atomic valenz-charges read in
  non local Contribution for L=           0  read in
    real space projection operators read in
  non local Contribution for L=           0  read in
    real space projection operators read in
  non local Contribution for L=           1  read in
    real space projection operators read in
    PAW grid and wavefunctions read in
 
   number of l-projection  operators is LMAX  =           3
   number of lm-projection operators is LMMAX =           5
 
 POTCAR:    PAW_PBE C 08Apr2002                   
   VRHFIN =C: s2p2                                                              
   LEXCH  = PE                                                                  
   EATOM  =   147.1560 eV,   10.8157 Ry                                         
                                                                                
   TITEL  = PAW_PBE C 08Apr2002                                                 
   LULTRA =        F    use ultrasoft PP ?                                      
   IUNSCR =        1    unscreen: 0-lin 1-nonlin 2-no                           
   RPACOR =    1.200    partial core radius                                     
   POMASS =   12.011; ZVAL   =    4.000    mass and valenz                      
   RCORE  =    1.500    outmost cutoff radius                                   
   RWIGS  =    1.630; RWIGS  =    0.863    wigner-seitz radius (au A)           
   ENMAX  =  400.000; ENMIN  =  300.000 eV                                      
   ICORE  =        2    local potential                                         
   LCOR   =        T    correct aug charges                                     
   LPAW   =        T    paw PP                                                  
   EAUG   =  644.873                                                            
   DEXC   =    0.000                                                            
   RMAX   =    1.529    core radius for proj-oper                               
   RAUG   =    1.300    factor for augmentation sphere                          
   RDEP   =    1.501    radius for radial grids                                 
   RDEPT  =    1.300    core radius for aug-charge                              
                                                                                
   Atomic configuration                                                         
    4 entries                                                                   
     n  l   j            E        occ.                                          
     1  0  0.50      -273.3789   2.0000                                         
     2  0  0.50       -13.7508   2.0000                                         
     2  1  0.50        -5.2854   2.0000                                         
     3  2  1.50        -5.4423   0.0000                                         
   Description                                                                  
     l       E           TYP  RCUT    TYP  RCUT                                 
     0    -13.7508458     23  1.200                                             
     0     -8.2022199     23  1.200                                             
     1     -5.2854383     23  1.500                                             
     1     34.0145650     23  1.500                                             
     2     -5.4423304      7  1.500                                             
  local pseudopotential read in
  partial core-charges read in
  partial kinetic energy density read in
  atomic valenz-charges read in
  non local Contribution for L=           0  read in
    real space projection operators read in
  non local Contribution for L=           0  read in
    real space projection operators read in
  non local Contribution for L=           1  read in
    real space projection operators read in
  non local Contribution for L=           1  read in
    real space projection operators read in
    PAW grid and wavefunctions read in
 
   number of l-projection  operators is LMAX  =           4
   number of lm-projection operators is LMMAX =           8
 
  PAW_PBE H 15Jun2001                   :
 energy of atom  1       EATOM=  -12.4884
 kinetic energy error for atom=    0.0098 (will be added to EATOM!!)
  PAW_PBE C 08Apr2002                   :
 energy of atom  2       EATOM= -147.1560
 kinetic energy error for atom=    0.0288 (will be added to EATOM!!)
 
 
 POSCAR:  H  C                                   
  positions in cartesian coordinates
  No initial velocities read in
 exchange correlation table for  LEXCH =        8
   RHO(1)=    0.500       N(1)  =     2000
   RHO(2)=  100.500       N(2)  =     4000

 VTST: version 3.2, (02/03/18)

 CHAIN: initializing optimizer
 
 OPT: Using VASP Dynamics algorithm
 CHAIN: Read ICHAIN            0
 
 POSCAR:  H  C                                   
  positions in cartesian coordinates
  No initial velocities read in
 


--------------------------------------------------------------------------------------------------------


 ion  position               nearest neighbor table
   1  0.538  0.407  0.361-   5 1.11
   2  0.395  0.480  0.438-   5 1.08
   3  0.552  0.565  0.443-   5 1.11
   4  0.527  0.417  0.539-   5 1.08
   5  0.503  0.467  0.445-   4 1.08   2 1.08   1 1.11   3 1.11
 

IMPORTANT INFORMATION: All symmetrisations will be switched off!
NOSYMM: (Re-)initialisation of all symmetry stuff for point group C_1.

 
 

Automatic generation of k-mesh.
 generate k-points for:    2    2    2
Space group operators:
 irot       det(A)        alpha          n_x          n_y          n_z        tau_x        tau_y        tau_z
    1     1.000000     0.000000     1.000000     0.000000     0.000000     0.000000     0.000000     0.000000
 
 Subroutine IBZKPT returns following result:
 ===========================================
 
 Found      4 irreducible k-points:
 
 Following reciprocal coordinates:
            Coordinates               Weight
  0.250000  0.250000  0.250000      2.000000
 -0.250000  0.250000  0.250000      2.000000
  0.250000 -0.250000  0.250000      2.000000
 -0.250000 -0.250000  0.250000      2.000000
 
 Following cartesian coordinates:
            Coordinates               Weight
  0.025250  0.024772  0.025747      2.000000
 -0.025250  0.024270  0.024551      2.000000
  0.025250 -0.024270  0.026036      2.000000
 -0.025250 -0.024772  0.024840      2.000000
 


--------------------------------------------------------------------------------------------------------




 Dimension of arrays:
   k-points           NKPTS =      4   k-points in BZ     NKDIM =      4   number of bands    NBANDS=      8
   number of dos      NEDOS =    301   number of ions     NIONS =      5
   non local maximal  LDIM  =      4   non local SUM 2l+1 LMDIM =      8
   total plane-waves  NPLWV = 313600
   max r-space proj   IRMAX =      1   max aug-charges    IRDMAX=   3908
   dimension x,y,z NGX =    70 NGY =   70 NGZ =   64
   dimension x,y,z NGXF=   140 NGYF=  140 NGZF=  128
   support grid    NGXF=   140 NGYF=  140 NGZF=  128
   ions per type =               4   1
   NGX,Y,Z   is equivalent  to a cutoff of  11.75, 11.41, 10.76 a.u.
   NGXF,Y,Z  is equivalent  to a cutoff of  23.51, 22.83, 21.52 a.u.

 SYSTEM =  unknown system                          
 POSCAR =   H  C                                   

 Startparameter for this run:
   NWRITE =      2    write-flag & timer
   PREC   = a         normal or accurate (medium, high low for compatibility)
   ISTART =      0    job   : 0-new  1-cont  2-samecut
   ICHARG =      2    charge: 1-file 2-atom 10-const
   ISPIN  =      1    spin polarized calculation?
   LNONCOLLINEAR =      F non collinear calculations
   LSORBIT =      F    spin-orbit coupling
   INIWAV =      1    electr: 0-lowe 1-rand  2-diag
   LASPH  =      F    aspherical Exc in radial PAW
   METAGGA=      F    non-selfconsistent MetaGGA calc.

 Electronic Relaxation 1
   ENCUT  =  400.0 eV  29.40 Ry    5.42 a.u.  16.15 16.63 16.12*2*pi/ulx,y,z
   ENINI  =  400.0     initial cutoff
   ENAUG  =  644.9 eV  augmentation charge cutoff
   NELM   =    120;   NELMIN=  4; NELMDL= -5     # of ELM steps 
   EDIFF  = 0.1E-05   stopping-criterion for ELM
   LREAL  =      F    real-space projection
   NLSPLINE    = F    spline interpolate recip. space projectors
   LCOMPAT=      F    compatible to vasp.4.4
   GGA_COMPAT  = T    GGA compatible to vasp.4.4-vasp.4.6
   LMAXPAW     = -100 max onsite density
   LMAXMIX     =    2 max onsite mixed and CHGCAR
   VOSKOWN=      0    Vosko Wilk Nusair interpolation
   ROPT   =    0.00000   0.00000
 Ionic relaxation
   EDIFFG = 0.1E-04   stopping-criterion for IOM
   NSW    =     10    number of steps for IOM
   NBLOCK =      1;   KBLOCK =     10    inner block; outer block 
   IBRION =      0    ionic relax: 0-MD 1-quasi-New 2-CG
   NFREE  =      0    steps in history (QN), initial steepest desc. (CG)
   ISIF   =      2    stress and relaxation
   IWAVPR =     12    prediction:  0-non 1-charg 2-wave 3-comb
   ISYM   =      0    0-nonsym 1-usesym 2-fastsym
   LCORR  =      T    Harris-Foulkes like correction to forces

   POTIM  = 0.5000    time-step for ionic-motion
   TEIN   =    0.0    initial temperature
   TEBEG  =    0.0;   TEEND  =   0.0 temperature during run
   SMASS  =  -3.00    Nose mass-parameter (am)
   estimated Nose-frequenzy (Omega)   =  0.10E-29 period in steps =****** mass=  -0.224E-26a.u.
   SCALEE = 1.0000    scale energy and forces
   NPACO  =    256;   APACO  = 16.0  distance and # of slots for P.C.
   PSTRESS=    0.0 pullay stress

  Mass of Ions in am
   POMASS =   1.00 12.01
  Ionic Valenz
   ZVAL   =   1.00  4.00
  Atomic Wigner-Seitz radii
   RWIGS  =  -1.00 -1.00
  virtual crystal weights 
   VCA    =   1.00  1.00
   NELECT =       8.0000    total number of electrons
   NUPDOWN=      -1.0000    fix difference up-down

 DOS related values:
   EMIN   =  10.00;   EMAX   =-10.00  energy-range for DOS
   EFERMI =   0.00
   ISMEAR =     0;   SIGMA  =   0.20  broadening in eV -4-tet -1-fermi 0-gaus

 Electronic relaxation 2 (details)
   IALGO  =     68    algorithm
   LDIAG  =      T    sub-space diagonalisation (order eigenvalues)
   LSUBROT=      F    optimize rotation matrix (better conditioning)
   TURBO    =      0    0=normal 1=particle mesh
   IRESTART =      0    0=no restart 2=restart with 2 vectors
   NREBOOT  =      0    no. of reboots
   NMIN     =      0    reboot dimension
   EREF     =   0.00    reference energy to select bands
   IMIX   =      4    mixing-type and parameters
     AMIX     =   0.40;   BMIX     =  1.00
     AMIX_MAG =   1.60;   BMIX_MAG =  1.00
     AMIN     =   0.10
     WC   =   100.;   INIMIX=   1;  MIXPRE=   1;  MAXMIX= -45

 Intra band minimization:
   WEIMIN = 0.0010     energy-eigenvalue tresh-hold
   EBREAK =  0.31E-07  absolut break condition
   DEPER  =   0.30     relativ break condition  

   TIME   =   0.40     timestep for ELM

  volume/ion in A,a.u.               =     199.54      1346.57
  Fermi-wavevector in a.u.,A,eV,Ry     =   0.327670  0.619207  1.460827  0.107368
  Thomas-Fermi vector in A             =   1.220597
 
 Write flags
   LWAVE        =      F    write WAVECAR
   LDOWNSAMPLE  =      F    k-point downsampling of WAVECAR
   LCHARG       =      F    write CHGCAR
   LVTOT        =      F    write LOCPOT, total local potential
   LVHAR        =      F    write LOCPOT, Hartree potential only
   LELF         =      F    write electronic localiz. function (ELF)
   LORBIT       =      0    0 simple, 1 ext, 2 COOP (PROOUT), +10 PAW based schemes


 Dipole corrections
   LMONO  =      F    monopole corrections only (constant potential shift)
   LDIPOL =      F    correct potential (dipole corrections)
   IDIPOL =      0    1-x, 2-y, 3-z, 4-all directions 
   EPSILON=  1.0000000 bulk dielectric constant

 Exchange correlation treatment:
   GGA     =    --    GGA type
   LEXCH   =     8    internal setting for exchange type
   VOSKOWN=      0    Vosko Wilk Nusair interpolation
   LHFCALC =     F    Hartree Fock is set to
   LHFONE  =     F    Hartree Fock one center treatment
   AEXX    =    0.0000 exact exchange contribution

 Linear response parameters
   LEPSILON=     F    determine dielectric tensor
   LRPA    =     F    only Hartree local field effects (RPA)
   LNABLA  =     F    use nabla operator in PAW spheres
   LVEL    =     F    velocity operator in full k-point grid
   LINTERFAST=   F  fast interpolation
   KINTER  =     0    interpolate to denser k-point grid
   CSHIFT  =0.1000    complex shift for real part using Kramers Kronig
   OMEGAMAX=  -1.0    maximum frequency
   DEG_THRESHOLD= 0.2000000E-02 threshold for treating states as degnerate
   RTIME   =   -0.100 relaxation time in fs
  (WPLASMAI=    0.000 imaginary part of plasma frequency in eV, 0.658/RTIME)
   DFIELD  = 0.0000000 0.0000000 0.0000000 field for delta impulse in time
 
 Orbital magnetization related:
   ORBITALMAG=     F  switch on orbital magnetization
   LCHIMAG   =     F  perturbation theory with respect to B field
   DQ        =  0.001000  dq finite difference perturbation B field
   LLRAUG    =     F  two centre corrections for induced B field



--------------------------------------------------------------------------------------------------------


 molecular dynamics for ions
   using a microcanonical ensemble
 charge density and potential will be updated during run
 non-spin polarized calculation
 RMM-DIIS sequential band-by-band and
  variant of blocked Davidson during initial phase
 perform sub-space diagonalisation
    before iterative eigenvector-optimisation
 modified Broyden-mixing scheme, WC =      100.0
 initial mixing is a Kerker type mixing with AMIX =  0.4000 and BMIX =      1.0000
 Hartree-type preconditioning will be used
 using additional bands            4
 reciprocal scheme for non local part
 use partial core corrections
 calculate Harris-corrections to forces 
   (improved forces if not selfconsistent)
 use gradient corrections 
 use of overlap-Matrix (Vanderbilt PP)
 Gauss-broadening in eV      SIGMA  =   0.20


--------------------------------------------------------------------------------------------------------


  energy-cutoff  :      400.00
  volume of cell :      997.71
      direct lattice vectors                 reciprocal lattice vectors
     9.900849440  0.000000000  0.000000000     0.101001435  0.001004424  0.002391543
    -0.101388213 10.195249925  0.000000000     0.000000000  0.098084893 -0.000578698
    -0.234616698  0.058315363  9.884016786     0.000000000  0.000000000  0.101173442

  length of vectors
     9.900849440 10.195754048  9.886972919     0.101034738  0.098086600  0.101173442


 
 k-points in units of 2pi/SCALE and weight: read from INCAR                         
   0.02525036  0.02477233  0.02574657       0.250
  -0.02525036  0.02427012  0.02455080       0.250
   0.02525036 -0.02427012  0.02603592       0.250
  -0.02525036 -0.02477233  0.02484015       0.250
 
 k-points in reciprocal lattice and weights: read from INCAR                         
   0.25000000  0.25000000  0.25000000       0.250
  -0.25000000  0.25000000  0.25000000       0.250
   0.25000000 -0.25000000  0.25000000       0.250
  -0.25000000 -0.25000000  0.25000000       0.250
 
 position of ions in fractional coordinates (direct lattice) 
   0.53827409  0.40667534  0.36073083
   0.39484085  0.48016357  0.43818953
   0.55210565  0.56536834  0.44261455
   0.52745313  0.41698958  0.53921243
   0.50335521  0.46725099  0.44534000
 
 position of ions in cartesian coordinates  (Angst):
   5.20350513  4.16719283  3.56546961
   3.75777026  4.92094077  4.33107264
   5.30514850  5.78988270  4.37480962
   5.05344796  4.28275731  5.32958474
   4.83178623  4.78971081  4.40174808
 


--------------------------------------------------------------------------------------------------------


 k-point  1 :   0.2500 0.2500 0.2500  plane waves:   18113
 k-point  2 :  -0.2500 0.2500 0.2500  plane waves:   18138
 k-point  3 :   0.2500-0.2500 0.2500  plane waves:   18119
 k-point  4 :  -0.2500-0.2500 0.2500  plane waves:   18139

 maximum and minimum number of plane-waves per node :      4564     4512

 maximum number of plane-waves:     18139
 maximum index in each direction: 
   IXMAX=   16   IYMAX=   16   IZMAX=   15
   IXMIN=  -16   IYMIN=  -16   IZMIN=  -16


 parallel 3D FFT for wavefunctions:
    minimum data exchange during FFTs selected (reduces bandwidth)
 parallel 3D FFT for charge:
    minimum data exchange during FFTs selected (reduces bandwidth)


 total amount of memory used by VASP MPI-rank0    53508. kBytes
=======================================================================

   base      :      30000. kBytes
   nonl-proj :       2687. kBytes
   fftplans  :       7854. kBytes
   grid      :      12378. kBytes
   one-center:          6. kBytes
   wavefun   :        583. kBytes
 
     INWAV:  cpu time    0.0000: real time    0.0000
 Broyden mixing: mesh for mixing (old mesh)
   NGX = 33   NGY = 33   NGZ = 33
  (NGX  =140   NGY  =140   NGZ  =128)
  gives a total of  35937 points

 initial charge density was supplied:
 charge density of overlapping atoms calculated
 number of electron       8.0000000 magnetization 
 keeping initial charge density in first step


--------------------------------------------------------------------------------------------------------


 Maximum index for augmentation-charges          174 (set IRDMAX)


--------------------------------------------------------------------------------------------------------


 First call to EWALD:  gamma=   0.177
 Maximum number of real-space cells 3x 3x 3
 Maximum number of reciprocal cells 3x 3x 3

    FEWALD:  cpu time    0.0015: real time    0.0015


--------------------------------------- Iteration      1(   1)  ---------------------------------------


    POTLOK:  cpu time    0.1221: real time    0.1308
    SETDIJ:  cpu time    0.0031: real time    0.0037
     EDDAV:  cpu time    0.1640: real time    0.1838
       DOS:  cpu time    0.0004: real time    0.0011
    --------------------------------------------
      LOOP:  cpu time    0.2897: real time    0.3195

 eigenvalue-minimisations  :    88
 total energy-change (2. order) : 0.2752303E+02  (-0.1929729E+03)
 number of electron       8.0000000 magnetization 
 augmentation part        8.0000000 magnetization 

 Free energy of the ion-electron system (eV)
  ---------------------------------------------------
  alpha Z        PSCENC =         0.24280711
  Ewald energy   TEWEN  =       129.21621027
  -Hartree energ DENC   =      -244.20075757
  -exchange      EXHF   =         0.00000000
  -V(xc)+E(xc)   XCENC  =        22.02306347
  PAW double counting   =       117.05815612     -117.66307307
  entropy T*S    EENTRO =        -0.07697987
  eigenvalues    EBANDS =       -76.11814833
  atomic energy  EATOM  =       197.04175453
  Solvation  Ediel_sol  =         0.00000000
  ---------------------------------------------------
  free energy    TOTEN  =        27.52303267 eV

  energy without entropy =       27.60001254  energy(sigma->0) =       27.56152261


--------------------------------------------------------------------------------------------------------




--------------------------------------- Iteration      1(   2)  ---------------------------------------


     EDDAV:  cpu time    0.1503: real time    0.1524
       DOS:  cpu time    0.0003: real time    0.0003
    --------------------------------------------
      LOOP:  cpu time    0.1506: real time    0.1527

 eigenvalue-minimisations  :    80
 total energy-change (2. order) :-0.4629292E+02  (-0.3952222E+02)
 number of electron       8.0000000 magnetization 
 augmentation part        8.0000000 magnetization 

 Free energy of the ion-electron system (eV)
  ---------------------------------------------------
  alpha Z        PSCENC =         0.24280711
  Ewald energy   TEWEN  =       129.21621027
  -Hartree energ DENC   =      -244.20075757
  -exchange      EXHF   =         0.00000000
  -V(xc)+E(xc)   XCENC  =        22.02306347
  PAW double counting   =       117.05815612     -117.66307307
  entropy T*S    EENTRO =        -0.00000000
  eigenvalues    EBANDS =      -122.48804982
  atomic energy  EATOM  =       197.04175453
  Solvation  Ediel_sol  =         0.00000000
  ---------------------------------------------------
  free energy    TOTEN  =       -18.76988896 eV

  energy without entropy =      -18.76988896  energy(sigma->0) =      -18.76988896


--------------------------------------------------------------------------------------------------------




--------------------------------------- Iteration      1(   3)  ---------------------------------------


     EDDAV:  cpu time    0.1281: real time    0.1281
       DOS:  cpu time    0.0002: real time    0.0002
    --------------------------------------------
      LOOP:  cpu time    0.1282: real time    0.1282

 eigenvalue-minimisations  :    64
 total energy-change (2. order) :-0.8240269E+01  (-0.8240269E+01)
 number of electron       8.0000000 magnetization 
 augmentation part        8.0000000 magnetization 

 Free energy of the ion-electron system (eV)
  ---------------------------------------------------
  alpha Z        PSCENC =         0.24280711
  Ewald energy   TEWEN  =       129.21621027
  -Hartree energ DENC   =      -244.20075757
  -exchange      EXHF   =         0.00000000
  -V(xc)+E(xc)   XCENC  =        22.02306347
  PAW double counting   =       117.05815612     -117.66307307
  entropy T*S    EENTRO =        -0.00000000
  eigenvalues    EBANDS =      -130.72831932
  atomic energy  EATOM  =       197.04175453
  Solvation  Ediel_sol  =         0.00000000
  ---------------------------------------------------
  free energy    TOTEN  =       -27.01015845 eV

  energy without entropy =      -27.01015845  energy(sigma->0) =      -27.01015845


--------------------------------------------------------------------------------------------------------




--------------------------------------- Iteration      1(   4)  ---------------------------------------


     EDDAV:  cpu time    0.1924: real time    0.1924
       DOS:  cpu time    0.0002: real time    0.0002
    --------------------------------------------
      LOOP:  cpu time    0.1926: real time    0.1927

 eigenvalue-minimisations  :   112
 total energy-change (2. order) :-0.5596412E+00  (-0.5596412E+00)
 number of electron       8.0000000 magnetization 
 augmentation part        8.0000000 magnetization 

 Free energy of the ion-electron system (eV)
  ---------------------------------------------------
  alpha Z        PSCENC =         0.24280711
  Ewald energy   TEWEN  =       129.21621027
  -Hartree energ DENC   =      -244.20075757
  -exchange      EXHF   =         0.00000000
  -V(xc)+E(xc)   XCENC  =        22.02306347
  PAW double counting   =       117.05815612     -117.66307307
  entropy T*S    EENTRO =        -0.00000000
  eigenvalues    EBANDS =      -131.28796052
  atomic energy  EATOM  =       197.04175453
  Solvation  Ediel_sol  =         0.00000000
  ---------------------------------------------------
  free energy    TOTEN  =       -27.56979965 eV

  energy without entropy =      -27.56979965  energy(sigma->0) =      -27.56979965


--------------------------------------------------------------------------------------------------------




--------------------------------------- Iteration      1(   5)  ---------------------------------------


     EDDAV:  cpu time    0.1806: real time    0.1806
       DOS:  cpu time    0.0002: real time    0.0002
    CHARGE:  cpu time    0.0179: real time    0.0179
    MIXING:  cpu time    0.0036: real time    0.0036
    --------------------------------------------
      LOOP:  cpu time    0.2024: real time    0.2024

 eigenvalue-minimisations  :   104
 total energy-change (2. order) :-0.1008879E-01  (-0.1008879E-01)
 number of electron       7.9999999 magnetization 
 augmentation part        0.2262016 magnetization 

 Broyden mixing:
  rms(total) = 0.87647E+00    rms(broyden)= 0.87628E+00
  rms(prec ) = 0.12372E+01
  weight for this iteration     100.00

 Free energy of the ion-electron system (eV)
  ---------------------------------------------------
  alpha Z        PSCENC =         0.24280711
  Ewald energy   TEWEN  =       129.21621027
  -Hartree energ DENC   =      -244.20075757
  -exchange      EXHF   =         0.00000000
  -V(xc)+E(xc)   XCENC  =        22.02306347
  PAW double counting   =       117.05815612     -117.66307307
  entropy T*S    EENTRO =        -0.00000000
  eigenvalues    EBANDS =      -131.29804930
  atomic energy  EATOM  =       197.04175453
  Solvation  Ediel_sol  =         0.00000000
  ---------------------------------------------------
  free energy    TOTEN  =       -27.57988844 eV

  energy without entropy =      -27.57988844  energy(sigma->0) =      -27.57988844


--------------------------------------------------------------------------------------------------------




--------------------------------------- Iteration      1(   6)  ---------------------------------------


    POTLOK:  cpu time    0.1176: real time    0.1176
    SETDIJ:  cpu time    0.0014: real time    0.0014
    EDDIAG:  cpu time    0.0343: real time    0.0447
  RMM-DIIS:  cpu time    0.1291: real time    0.1292
    ORTHCH:  cpu time    0.0016: real time    0.0016
       DOS:  cpu time    0.0002: real time    0.0002
    CHARGE:  cpu time    0.0162: real time    0.0162
    MIXING:  cpu time    0.0041: real time    0.0054
    --------------------------------------------
      LOOP:  cpu time    0.3046: real time    0.3163

 eigenvalue-minimisations  :    64
 total energy-change (2. order) : 0.2922528E+01  (-0.5421057E+00)
 number of electron       7.9999999 magnetization 
 augmentation part        0.1993632 magnetization 

 Broyden mixing:
  rms(total) = 0.43147E+00    rms(broyden)= 0.43139E+00
  rms(prec ) = 0.55848E+00
  weight for this iteration     100.00

 eigenvalues of (default mixing * dielectric matrix)
  average eigenvalue GAMMA=   1.3069
  1.3069

 Free energy of the ion-electron system (eV)
  ---------------------------------------------------
  alpha Z        PSCENC =         0.24280711
  Ewald energy   TEWEN  =       129.21621027
  -Hartree energ DENC   =      -264.02831152
  -exchange      EXHF   =         0.00000000
  -V(xc)+E(xc)   XCENC  =        23.22633619
  PAW double counting   =       239.23733545     -240.01850118
  entropy T*S    EENTRO =        -0.00000000
  eigenvalues    EBANDS =      -109.57499089
  atomic energy  EATOM  =       197.04175453
  Solvation  Ediel_sol  =         0.00000000
  ---------------------------------------------------
  free energy    TOTEN  =       -24.65736003 eV

  energy without entropy =      -24.65736003  energy(sigma->0) =      -24.65736003


--------------------------------------------------------------------------------------------------------




--------------------------------------- Iteration      1(   7)  ---------------------------------------


    POTLOK:  cpu time    0.1179: real time    0.1179
    SETDIJ:  cpu time    0.0014: real time    0.0014
    EDDIAG:  cpu time    0.0305: real time    0.0305
  RMM-DIIS:  cpu time    0.1283: real time    0.1283
    ORTHCH:  cpu time    0.0014: real time    0.0014
       DOS:  cpu time    0.0002: real time    0.0002
    CHARGE:  cpu time    0.0153: real time    0.0153
    MIXING:  cpu time    0.0038: real time    0.0038
    --------------------------------------------
      LOOP:  cpu time    0.2988: real time    0.2988

 eigenvalue-minimisations  :    64
 total energy-change (2. order) : 0.4979537E+00  (-0.1235478E+00)
 number of electron       7.9999999 magnetization 
 augmentation part        0.1887645 magnetization 

 Broyden mixing:
  rms(total) = 0.22907E+00    rms(broyden)= 0.22902E+00
  rms(prec ) = 0.27617E+00
  weight for this iteration     100.00

 eigenvalues of (default mixing * dielectric matrix)
  average eigenvalue GAMMA=   1.8428
  1.4598  2.2258

 Free energy of the ion-electron system (eV)
  ---------------------------------------------------
  alpha Z        PSCENC =         0.24280711
  Ewald energy   TEWEN  =       129.21621027
  -Hartree energ DENC   =      -275.79124363
  -exchange      EXHF   =         0.00000000
  -V(xc)+E(xc)   XCENC  =        24.08984965
  PAW double counting   =       367.38123676     -368.20246373
  entropy T*S    EENTRO =        -0.00000000
  eigenvalues    EBANDS =       -98.13755731
  atomic energy  EATOM  =       197.04175453
  Solvation  Ediel_sol  =         0.00000000
  ---------------------------------------------------
  free energy    TOTEN  =       -24.15940633 eV

  energy without entropy =      -24.15940633  energy(sigma->0) =      -24.15940633


--------------------------------------------------------------------------------------------------------




--------------------------------------- Iteration      1(   8)  ---------------------------------------


    POTLOK:  cpu time    0.1184: real time    0.1184
    SETDIJ:  cpu time    0.0014: real time    0.0014
    EDDIAG:  cpu time    0.0300: real time    0.0300
  RMM-DIIS:  cpu time    0.1272: real time    0.1272
    ORTHCH:  cpu time    0.0019: real time    0.0019
       DOS:  cpu time    0.0002: real time    0.0002
    CHARGE:  cpu time    0.0153: real time    0.0153
    MIXING:  cpu time    0.0041: real time    0.0041
    --------------------------------------------
      LOOP:  cpu time    0.2985: real time    0.2985

 eigenvalue-minimisations  :    64
 total energy-change (2. order) : 0.1468563E+00  (-0.1626074E-01)
 number of electron       7.9999999 magnetization 
 augmentation part        0.1873780 magnetization 

 Broyden mixing:
  rms(total) = 0.22554E-01    rms(broyden)= 0.22533E-01
  rms(prec ) = 0.52433E-01
  weight for this iteration     100.00

 eigenvalues of (default mixing * dielectric matrix)
  average eigenvalue GAMMA=   1.5505
  2.2479  0.9935  1.4100

 Free energy of the ion-electron system (eV)
  ---------------------------------------------------
  alpha Z        PSCENC =         0.24280711
  Ewald energy   TEWEN  =       129.21621027
  -Hartree energ DENC   =      -281.20198166
  -exchange      EXHF   =         0.00000000
  -V(xc)+E(xc)   XCENC  =        24.62645362
  PAW double counting   =       477.61982361     -478.40899981
  entropy T*S    EENTRO =        -0.00000000
  eigenvalues    EBANDS =       -93.14861772
  atomic energy  EATOM  =       197.04175453
  Solvation  Ediel_sol  =         0.00000000
  ---------------------------------------------------
  free energy    TOTEN  =       -24.01255004 eV

  energy without entropy =      -24.01255004  energy(sigma->0) =      -24.01255004


--------------------------------------------------------------------------------------------------------




--------------------------------------- Iteration      1(   9)  ---------------------------------------


    POTLOK:  cpu time    0.1185: real time    0.1185
    SETDIJ:  cpu time    0.0014: real time    0.0014
    EDDIAG:  cpu time    0.0297: real time    0.0297
  RMM-DIIS:  cpu time    0.1276: real time    0.1276
    ORTHCH:  cpu time    0.0015: real time    0.0015
       DOS:  cpu time    0.0002: real time    0.0002
    CHARGE:  cpu time    0.0154: real time    0.0154
    MIXING:  cpu time    0.0041: real time    0.0041
    --------------------------------------------
      LOOP:  cpu time    0.2984: real time    0.2984

 eigenvalue-minimisations  :    64
 total energy-change (2. order) : 0.5692392E-02  (-0.1109391E-02)
 number of electron       7.9999999 magnetization 
 augmentation part        0.1868065 magnetization 

 Broyden mixing:
  rms(total) = 0.19591E-01    rms(broyden)= 0.19587E-01
  rms(prec ) = 0.40278E-01
  weight for this iteration     100.00

 eigenvalues of (default mixing * dielectric matrix)
  average eigenvalue GAMMA=   2.0975
  3.0696  2.9402  1.0027  1.3777

 Free energy of the ion-electron system (eV)
  ---------------------------------------------------
  alpha Z        PSCENC =         0.24280711
  Ewald energy   TEWEN  =       129.21621027
  -Hartree energ DENC   =      -282.46300988
  -exchange      EXHF   =         0.00000000
  -V(xc)+E(xc)   XCENC  =        24.69626130
  PAW double counting   =       481.11308310     -481.90490717
  entropy T*S    EENTRO =        -0.00000000
  eigenvalues    EBANDS =       -91.94905693
  atomic energy  EATOM  =       197.04175453
  Solvation  Ediel_sol  =         0.00000000
  ---------------------------------------------------
  free energy    TOTEN  =       -24.00685765 eV

  energy without entropy =      -24.00685765  energy(sigma->0) =      -24.00685765


--------------------------------------------------------------------------------------------------------




--------------------------------------- Iteration      1(  10)  ---------------------------------------


    POTLOK:  cpu time    0.1140: real time    0.1141
    SETDIJ:  cpu time    0.0014: real time    0.0014
    EDDIAG:  cpu time    0.0296: real time    0.0296
  RMM-DIIS:  cpu time    0.1288: real time    0.1288
    ORTHCH:  cpu time    0.0015: real time    0.0015
       DOS:  cpu time    0.0002: real time    0.0002
    CHARGE:  cpu time    0.0153: real time    0.0153
    MIXING:  cpu time    0.0045: real time    0.0053
    --------------------------------------------
      LOOP:  cpu time    0.2953: real time    0.2962

 eigenvalue-minimisations  :    64
 total energy-change (2. order) : 0.6159455E-02  (-0.2419073E-02)
 number of electron       7.9999999 magnetization 
 augmentation part        0.1857661 magnetization 

 Broyden mixing:
  rms(total) = 0.27805E-01    rms(broyden)= 0.27804E-01
  rms(prec ) = 0.35286E-01
  weight for this iteration     100.00

 eigenvalues of (default mixing * dielectric matrix)
  average eigenvalue GAMMA=   1.7822
  3.0656  2.4329  1.2173  1.2173  0.9777

 Free energy of the ion-electron system (eV)
  ---------------------------------------------------
  alpha Z        PSCENC =         0.24280711
  Ewald energy   TEWEN  =       129.21621027
  -Hartree energ DENC   =      -284.65993057
  -exchange      EXHF   =         0.00000000
  -V(xc)+E(xc)   XCENC  =        24.76616649
  PAW double counting   =       465.06030366     -465.85565665
  entropy T*S    EENTRO =        -0.00000000
  eigenvalues    EBANDS =       -89.81235305
  atomic energy  EATOM  =       197.04175453
  Solvation  Ediel_sol  =         0.00000000
  ---------------------------------------------------
  free energy    TOTEN  =       -24.00069820 eV

  energy without entropy =      -24.00069820  energy(sigma->0) =      -24.00069820


--------------------------------------------------------------------------------------------------------




--------------------------------------- Iteration      1(  11)  ---------------------------------------


    POTLOK:  cpu time    0.1140: real time    0.1140
    SETDIJ:  cpu time    0.0014: real time    0.0014
    EDDIAG:  cpu time    0.0296: real time    0.0296
  RMM-DIIS:  cpu time    0.1279: real time    0.1279
    ORTHCH:  cpu time    0.0014: real time    0.0014
       DOS:  cpu time    0.0002: real time    0.0002
    CHARGE:  cpu time    0.0151: real time    0.0151
    MIXING:  cpu time    0.0044: real time    0.0044
    --------------------------------------------
      LOOP:  cpu time    0.2940: real time    0.2940

 eigenvalue-minimisations  :    64
 total energy-change (2. order) :-0.6254018E-03  (-0.7404977E-03)
 number of electron       7.9999999 magnetization 
 augmentation part        0.1861078 magnetization 

 Broyden mixing:
  rms(total) = 0.75093E-02    rms(broyden)= 0.75064E-02
  rms(prec ) = 0.13498E-01
  weight for this iteration     100.00

 eigenvalues of (default mixing * dielectric matrix)
  average eigenvalue GAMMA=   2.2720
  4.7930  3.1012  2.4302  1.2938  1.0069  1.0069

 Free energy of the ion-electron system (eV)
  ---------------------------------------------------
  alpha Z        PSCENC =         0.24280711
  Ewald energy   TEWEN  =       129.21621027
  -Hartree energ DENC   =      -284.56003849
  -exchange      EXHF   =         0.00000000
  -V(xc)+E(xc)   XCENC  =        24.78035059
  PAW double counting   =       474.21568171     -475.00374065
  entropy T*S    EENTRO =        -0.00000000
  eigenvalues    EBANDS =       -89.93434868
  atomic energy  EATOM  =       197.04175453
  Solvation  Ediel_sol  =         0.00000000
  ---------------------------------------------------
  free energy    TOTEN  =       -24.00132360 eV

  energy without entropy =      -24.00132360  energy(sigma->0) =      -24.00132360


--------------------------------------------------------------------------------------------------------




--------------------------------------- Iteration      1(  12)  ---------------------------------------


    POTLOK:  cpu time    0.1077: real time    0.1078
    SETDIJ:  cpu time    0.0014: real time    0.0014
    EDDIAG:  cpu time    0.0294: real time    0.0294
  RMM-DIIS:  cpu time    0.1296: real time    0.1296
    ORTHCH:  cpu time    0.0014: real time    0.0014
       DOS:  cpu time    0.0002: real time    0.0002
    CHARGE:  cpu time    0.0152: real time    0.0152
    MIXING:  cpu time    0.0045: real time    0.0045
    --------------------------------------------
      LOOP:  cpu time    0.2894: real time    0.2894

 eigenvalue-minimisations  :    64
 total energy-change (2. order) :-0.9702810E-02  (-0.3828975E-03)
 number of electron       7.9999999 magnetization 
 augmentation part        0.1863452 magnetization 

 Broyden mixing:
  rms(total) = 0.12584E-01    rms(broyden)= 0.12583E-01
  rms(prec ) = 0.16390E-01
  weight for this iteration     100.00

 eigenvalues of (default mixing * dielectric matrix)
  average eigenvalue GAMMA=   2.0155
  4.7875  2.9263  2.4314  1.2418  0.9989  0.9989  0.7240

 Free energy of the ion-electron system (eV)
  ---------------------------------------------------
  alpha Z        PSCENC =         0.24280711
  Ewald energy   TEWEN  =       129.21621027
  -Hartree energ DENC   =      -284.75720188
  -exchange      EXHF   =         0.00000000
  -V(xc)+E(xc)   XCENC  =        24.77250995
  PAW double counting   =       471.37368891     -472.16031784
  entropy T*S    EENTRO =        -0.00000000
  eigenvalues    EBANDS =       -89.74047747
  atomic energy  EATOM  =       197.04175453
  Solvation  Ediel_sol  =         0.00000000
  ---------------------------------------------------
  free energy    TOTEN  =       -24.01102641 eV

  energy without entropy =      -24.01102641  energy(sigma->0) =      -24.01102641


--------------------------------------------------------------------------------------------------------




--------------------------------------- Iteration      1(  13)  ---------------------------------------


    POTLOK:  cpu time    0.1072: real time    0.1072
    SETDIJ:  cpu time    0.0015: real time    0.0015
    EDDIAG:  cpu time    0.0295: real time    0.0295
  RMM-DIIS:  cpu time    0.1299: real time    0.1299
    ORTHCH:  cpu time    0.0014: real time    0.0014
       DOS:  cpu time    0.0002: real time    0.0002
    CHARGE:  cpu time    0.0152: real time    0.0152
    MIXING:  cpu time    0.0046: real time    0.0046
    --------------------------------------------
      LOOP:  cpu time    0.2895: real time    0.2895

 eigenvalue-minimisations  :    64
 total energy-change (2. order) :-0.4450357E-03  (-0.8924471E-04)
 number of electron       7.9999999 magnetization 
 augmentation part        0.1861178 magnetization 

 Broyden mixing:
  rms(total) = 0.53868E-02    rms(broyden)= 0.53866E-02
  rms(prec ) = 0.72233E-02
  weight for this iteration     100.00

 eigenvalues of (default mixing * dielectric matrix)
  average eigenvalue GAMMA=   2.4083
  6.0906  4.0209  2.5080  2.3307  1.2210  1.2210  0.9956  0.8786

 Free energy of the ion-electron system (eV)
  ---------------------------------------------------
  alpha Z        PSCENC =         0.24280711
  Ewald energy   TEWEN  =       129.21621027
  -Hartree energ DENC   =      -284.94108894
  -exchange      EXHF   =         0.00000000
  -V(xc)+E(xc)   XCENC  =        24.77788510
  PAW double counting   =       471.18899806     -471.97797426
  entropy T*S    EENTRO =        -0.00000000
  eigenvalues    EBANDS =       -89.56006332
  atomic energy  EATOM  =       197.04175453
  Solvation  Ediel_sol  =         0.00000000
  ---------------------------------------------------
  free energy    TOTEN  =       -24.01147144 eV

  energy without entropy =      -24.01147144  energy(sigma->0) =      -24.01147144


--------------------------------------------------------------------------------------------------------




--------------------------------------- Iteration      1(  14)  ---------------------------------------


    POTLOK:  cpu time    0.1059: real time    0.1059
    SETDIJ:  cpu time    0.0015: real time    0.0015
    EDDIAG:  cpu time    0.0295: real time    0.0295
  RMM-DIIS:  cpu time    0.1291: real time    0.1291
    ORTHCH:  cpu time    0.0015: real time    0.0015
       DOS:  cpu time    0.0002: real time    0.0002
    CHARGE:  cpu time    0.0152: real time    0.0152
    MIXING:  cpu time    0.0048: real time    0.0048
    --------------------------------------------
      LOOP:  cpu time    0.2876: real time    0.2877

 eigenvalue-minimisations  :    64
 total energy-change (2. order) :-0.2856399E-02  (-0.1631798E-03)
 number of electron       7.9999999 magnetization 
 augmentation part        0.1859467 magnetization 

 Broyden mixing:
  rms(total) = 0.36928E-02    rms(broyden)= 0.36911E-02
  rms(prec ) = 0.48082E-02
  weight for this iteration     100.00

 eigenvalues of (default mixing * dielectric matrix)
  average eigenvalue GAMMA=   2.3487
  6.4840  4.0786  2.4472  2.4472  1.2617  1.2617  1.2583  0.9953  0.9046

 Free energy of the ion-electron system (eV)
  ---------------------------------------------------
  alpha Z        PSCENC =         0.24280711
  Ewald energy   TEWEN  =       129.21621027
  -Hartree energ DENC   =      -284.97393651
  -exchange      EXHF   =         0.00000000
  -V(xc)+E(xc)   XCENC  =        24.76922259
  PAW double counting   =       470.38312950     -471.17387624
  entropy T*S    EENTRO =        -0.00000000
  eigenvalues    EBANDS =       -89.51963910
  atomic energy  EATOM  =       197.04175453
  Solvation  Ediel_sol  =         0.00000000
  ---------------------------------------------------
  free energy    TOTEN  =       -24.01432784 eV

  energy without entropy =      -24.01432784  energy(sigma->0) =      -24.01432784


--------------------------------------------------------------------------------------------------------




--------------------------------------- Iteration      1(  15)  ---------------------------------------


    POTLOK:  cpu time    0.1061: real time    0.1061
    SETDIJ:  cpu time    0.0014: real time    0.0014
    EDDIAG:  cpu time    0.0293: real time    0.0293
  RMM-DIIS:  cpu time    0.1296: real time    0.1296
    ORTHCH:  cpu time    0.0014: real time    0.0014
       DOS:  cpu time    0.0002: real time    0.0002
    CHARGE:  cpu time    0.0150: real time    0.0150
    MIXING:  cpu time    0.0050: real time    0.0050
    --------------------------------------------
      LOOP:  cpu time    0.2881: real time    0.2881

 eigenvalue-minimisations  :    64
 total energy-change (2. order) :-0.2435002E-03  (-0.9327955E-05)
 number of electron       7.9999999 magnetization 
 augmentation part        0.1859466 magnetization 

 Broyden mixing:
  rms(total) = 0.12791E-02    rms(broyden)= 0.12790E-02
  rms(prec ) = 0.16821E-02
  weight for this iteration     100.00

 eigenvalues of (default mixing * dielectric matrix)
  average eigenvalue GAMMA=   2.5449
  7.5413  4.8872  2.9384  2.5543  2.0397  1.2889  1.2889  1.0167  0.9997  0.8937

 Free energy of the ion-electron system (eV)
  ---------------------------------------------------
  alpha Z        PSCENC =         0.24280711
  Ewald energy   TEWEN  =       129.21621027
  -Hartree energ DENC   =      -284.92051073
  -exchange      EXHF   =         0.00000000
  -V(xc)+E(xc)   XCENC  =        24.76724855
  PAW double counting   =       470.53016631     -471.31992138
  entropy T*S    EENTRO =        -0.00000000
  eigenvalues    EBANDS =       -89.57232600
  atomic energy  EATOM  =       197.04175453
  Solvation  Ediel_sol  =         0.00000000
  ---------------------------------------------------
  free energy    TOTEN  =       -24.01457134 eV

  energy without entropy =      -24.01457134  energy(sigma->0) =      -24.01457134


--------------------------------------------------------------------------------------------------------




--------------------------------------- Iteration      1(  16)  ---------------------------------------


    POTLOK:  cpu time    0.1073: real time    0.1073
    SETDIJ:  cpu time    0.0014: real time    0.0014
    EDDIAG:  cpu time    0.0293: real time    0.0293
  RMM-DIIS:  cpu time    0.1279: real time    0.1279
    ORTHCH:  cpu time    0.0015: real time    0.0015
       DOS:  cpu time    0.0002: real time    0.0002
    CHARGE:  cpu time    0.0150: real time    0.0150
    MIXING:  cpu time    0.0050: real time    0.0050
    --------------------------------------------
      LOOP:  cpu time    0.2875: real time    0.2876

 eigenvalue-minimisations  :    64
 total energy-change (2. order) :-0.2040048E-03  (-0.9471052E-05)
 number of electron       7.9999999 magnetization 
 augmentation part        0.1859966 magnetization 

 Broyden mixing:
  rms(total) = 0.89189E-03    rms(broyden)= 0.89150E-03
  rms(prec ) = 0.11985E-02
  weight for this iteration     100.00

 eigenvalues of (default mixing * dielectric matrix)
  average eigenvalue GAMMA=   2.4664
  7.6510  4.7708  3.3771  2.3891  2.2182  1.3236  1.3236  1.1082  1.1082  0.9304
  0.9304

 Free energy of the ion-electron system (eV)
  ---------------------------------------------------
  alpha Z        PSCENC =         0.24280711
  Ewald energy   TEWEN  =       129.21621027
  -Hartree energ DENC   =      -284.89942598
  -exchange      EXHF   =         0.00000000
  -V(xc)+E(xc)   XCENC  =        24.76692194
  PAW double counting   =       470.57053117     -471.35982649
  entropy T*S    EENTRO =        -0.00000000
  eigenvalues    EBANDS =       -89.59374789
  atomic energy  EATOM  =       197.04175453
  Solvation  Ediel_sol  =         0.00000000
  ---------------------------------------------------
  free energy    TOTEN  =       -24.01477535 eV

  energy without entropy =      -24.01477535  energy(sigma->0) =      -24.01477535


--------------------------------------------------------------------------------------------------------




--------------------------------------- Iteration      1(  17)  ---------------------------------------


    POTLOK:  cpu time    0.1073: real time    0.1073
    SETDIJ:  cpu time    0.0014: real time    0.0014
    EDDIAG:  cpu time    0.0293: real time    0.0292
  RMM-DIIS:  cpu time    0.1283: real time    0.1283
    ORTHCH:  cpu time    0.0016: real time    0.0016
       DOS:  cpu time    0.0002: real time    0.0002
    CHARGE:  cpu time    0.0151: real time    0.0151
    MIXING:  cpu time    0.0053: real time    0.0053
    --------------------------------------------
      LOOP:  cpu time    0.2884: real time    0.2884

 eigenvalue-minimisations  :    64
 total energy-change (2. order) :-0.3134615E-04  (-0.3570055E-05)
 number of electron       7.9999999 magnetization 
 augmentation part        0.1859564 magnetization 

 Broyden mixing:
  rms(total) = 0.46199E-03    rms(broyden)= 0.46193E-03
  rms(prec ) = 0.66387E-03
  weight for this iteration     100.00

 eigenvalues of (default mixing * dielectric matrix)
  average eigenvalue GAMMA=   2.5774
  8.3940  5.2154  3.9525  2.5240  2.5240  1.8837  1.3052  1.3052  1.0423  0.9834
  0.9080  0.8912

 Free energy of the ion-electron system (eV)
  ---------------------------------------------------
  alpha Z        PSCENC =         0.24280711
  Ewald energy   TEWEN  =       129.21621027
  -Hartree energ DENC   =      -284.94863041
  -exchange      EXHF   =         0.00000000
  -V(xc)+E(xc)   XCENC  =        24.76928156
  PAW double counting   =       470.57130294     -471.36101981
  entropy T*S    EENTRO =        -0.00000000
  eigenvalues    EBANDS =       -89.54651289
  atomic energy  EATOM  =       197.04175453
  Solvation  Ediel_sol  =         0.00000000
  ---------------------------------------------------
  free energy    TOTEN  =       -24.01480669 eV

  energy without entropy =      -24.01480669  energy(sigma->0) =      -24.01480669


--------------------------------------------------------------------------------------------------------




--------------------------------------- Iteration      1(  18)  ---------------------------------------


    POTLOK:  cpu time    0.1099: real time    0.1099
    SETDIJ:  cpu time    0.0014: real time    0.0014
    EDDIAG:  cpu time    0.0292: real time    0.0292
  RMM-DIIS:  cpu time    0.1237: real time    0.1237
    ORTHCH:  cpu time    0.0015: real time    0.0015
       DOS:  cpu time    0.0002: real time    0.0002
    CHARGE:  cpu time    0.0150: real time    0.0150
    MIXING:  cpu time    0.0055: real time    0.0055
    --------------------------------------------
      LOOP:  cpu time    0.2865: real time    0.2865

 eigenvalue-minimisations  :    60
 total energy-change (2. order) :-0.1190151E-04  (-0.3718610E-06)
 number of electron       7.9999999 magnetization 
 augmentation part        0.1859670 magnetization 

 Broyden mixing:
  rms(total) = 0.61236E-04    rms(broyden)= 0.61228E-04
  rms(prec ) = 0.96701E-04
  weight for this iteration     100.00

 eigenvalues of (default mixing * dielectric matrix)
  average eigenvalue GAMMA=   2.6024
  8.4433  5.4473  3.7090  3.4111  2.4318  2.2452  1.6164  1.2970  1.2970  1.0704
  0.9847  0.9847  0.8929

 Free energy of the ion-electron system (eV)
  ---------------------------------------------------
  alpha Z        PSCENC =         0.24280711
  Ewald energy   TEWEN  =       129.21621027
  -Hartree energ DENC   =      -284.92965377
  -exchange      EXHF   =         0.00000000
  -V(xc)+E(xc)   XCENC  =        24.76827633
  PAW double counting   =       470.51257849     -471.30212956
  entropy T*S    EENTRO =        -0.00000000
  eigenvalues    EBANDS =       -89.56466200
  atomic energy  EATOM  =       197.04175453
  Solvation  Ediel_sol  =         0.00000000
  ---------------------------------------------------
  free energy    TOTEN  =       -24.01481859 eV

  energy without entropy =      -24.01481859  energy(sigma->0) =      -24.01481859


--------------------------------------------------------------------------------------------------------




--------------------------------------- Iteration      1(  19)  ---------------------------------------


    POTLOK:  cpu time    0.1112: real time    0.1112
    SETDIJ:  cpu time    0.0014: real time    0.0014
    EDDIAG:  cpu time    0.0292: real time    0.0292
  RMM-DIIS:  cpu time    0.1012: real time    0.1012
    ORTHCH:  cpu time    0.0015: real time    0.0015
       DOS:  cpu time    0.0002: real time    0.0002
    CHARGE:  cpu time    0.0150: real time    0.0150
    MIXING:  cpu time    0.0057: real time    0.0057
    --------------------------------------------
      LOOP:  cpu time    0.2654: real time    0.2654

 eigenvalue-minimisations  :    48
 total energy-change (2. order) :-0.3456239E-05  (-0.3150582E-07)
 number of electron       7.9999999 magnetization 
 augmentation part        0.1859708 magnetization 

 Broyden mixing:
  rms(total) = 0.20658E-04    rms(broyden)= 0.20615E-04
  rms(prec ) = 0.40124E-04
  weight for this iteration     100.00

 eigenvalues of (default mixing * dielectric matrix)
  average eigenvalue GAMMA=   2.5594
  8.5012  5.5562  3.9701  3.5389  2.4502  2.4502  1.9685  1.2896  1.2896  1.0247
  0.8994  0.9713  0.9611  0.9611

 Free energy of the ion-electron system (eV)
  ---------------------------------------------------
  alpha Z        PSCENC =         0.24280711
  Ewald energy   TEWEN  =       129.21621027
  -Hartree energ DENC   =      -284.92658234
  -exchange      EXHF   =         0.00000000
  -V(xc)+E(xc)   XCENC  =        24.76801585
  PAW double counting   =       470.50178073     -471.29132799
  entropy T*S    EENTRO =        -0.00000000
  eigenvalues    EBANDS =       -89.56748021
  atomic energy  EATOM  =       197.04175453
  Solvation  Ediel_sol  =         0.00000000
  ---------------------------------------------------
  free energy    TOTEN  =       -24.01482205 eV

  energy without entropy =      -24.01482205  energy(sigma->0) =      -24.01482205


--------------------------------------------------------------------------------------------------------




--------------------------------------- Iteration      1(  20)  ---------------------------------------


    POTLOK:  cpu time    0.1122: real time    0.1122
    SETDIJ:  cpu time    0.0014: real time    0.0014
    EDDIAG:  cpu time    0.0292: real time    0.0292
  RMM-DIIS:  cpu time    0.0997: real time    0.0997
    ORTHCH:  cpu time    0.0014: real time    0.0014
       DOS:  cpu time    0.0002: real time    0.0002
    CHARGE:  cpu time    0.0151: real time    0.0151
    MIXING:  cpu time    0.0057: real time    0.0057
    --------------------------------------------
      LOOP:  cpu time    0.2649: real time    0.2649

 eigenvalue-minimisations  :    44
 total energy-change (2. order) :-0.1060153E-05  (-0.6114203E-08)
 number of electron       7.9999999 magnetization 
 augmentation part        0.1859715 magnetization 

 Broyden mixing:
  rms(total) = 0.14604E-04    rms(broyden)= 0.14593E-04
  rms(prec ) = 0.27616E-04
  weight for this iteration     100.00

 eigenvalues of (default mixing * dielectric matrix)
  average eigenvalue GAMMA=   2.5511
  8.5389  5.4770  4.4344  3.2282  2.7306  2.3977  1.9776  1.9776  1.2880  1.2880
  0.8941  0.9779  1.0046  1.0257  1.0257

 Free energy of the ion-electron system (eV)
  ---------------------------------------------------
  alpha Z        PSCENC =         0.24280711
  Ewald energy   TEWEN  =       129.21621027
  -Hartree energ DENC   =      -284.92681375
  -exchange      EXHF   =         0.00000000
  -V(xc)+E(xc)   XCENC  =        24.76800704
  PAW double counting   =       470.50494467     -471.29449620
  entropy T*S    EENTRO =        -0.00000000
  eigenvalues    EBANDS =       -89.56723678
  atomic energy  EATOM  =       197.04175453
  Solvation  Ediel_sol  =         0.00000000
  ---------------------------------------------------
  free energy    TOTEN  =       -24.01482311 eV

  energy without entropy =      -24.01482311  energy(sigma->0) =      -24.01482311


--------------------------------------------------------------------------------------------------------




--------------------------------------- Iteration      1(  21)  ---------------------------------------


    POTLOK:  cpu time    0.1121: real time    0.1121
    SETDIJ:  cpu time    0.0014: real time    0.0014
    EDDIAG:  cpu time    0.0293: real time    0.0293
  RMM-DIIS:  cpu time    0.0861: real time    0.0861
    ORTHCH:  cpu time    0.0014: real time    0.0014
       DOS:  cpu time    0.0002: real time    0.0002
    --------------------------------------------
      LOOP:  cpu time    0.2303: real time    0.2303

 eigenvalue-minimisations  :    32
 total energy-change (2. order) :-0.5266648E-06  ( 0.0000000E+00)
 number of electron       7.9999999 magnetization 
 augmentation part        0.1859715 magnetization 

 Free energy of the ion-electron system (eV)
  ---------------------------------------------------
  alpha Z        PSCENC =         0.24280711
  Ewald energy   TEWEN  =       129.21621027
  -Hartree energ DENC   =      -284.92720313
  -exchange      EXHF   =         0.00000000
  -V(xc)+E(xc)   XCENC  =        24.76804748
  PAW double counting   =       470.50817801     -471.29772830
  entropy T*S    EENTRO =        -0.00000000
  eigenvalues    EBANDS =       -89.56688961
  atomic energy  EATOM  =       197.04175453
  Solvation  Ediel_sol  =         0.00000000
  ---------------------------------------------------
  free energy    TOTEN  =       -24.01482364 eV

  energy without entropy =      -24.01482364  energy(sigma->0) =      -24.01482364


--------------------------------------------------------------------------------------------------------




 average (electrostatic) potential at core
  the test charge radii are     0.5201  0.6991
  (the norm of the test charge is              1.0000)
       1 -41.4193       2 -41.5795       3 -41.4204       4 -41.6179       5 -57.9469
 
 
 
 E-fermi :  -8.2373     XC(G=0):  -0.6979     alpha+bet : -0.2112


 k-point     1 :       0.2500    0.2500    0.2500
  band No.  band energies     occupation 
      1     -16.9024      2.00000
      2      -9.3935      2.00000
      3      -9.3035      2.00000
      4      -9.1839      2.00000
      5      -0.3077      0.00000
      6       0.5648      0.00000
      7       0.6680      0.00000
      8       0.6949      0.00000

 k-point     2 :      -0.2500    0.2500    0.2500
  band No.  band energies     occupation 
      1     -16.9024      2.00000
      2      -9.3935      2.00000
      3      -9.3036      2.00000
      4      -9.1840      2.00000
      5      -0.3142      0.00000
      6       0.5669      0.00000
      7       0.6864      0.00000
      8       0.7158      0.00000

 k-point     3 :       0.2500   -0.2500    0.2500
  band No.  band energies     occupation 
      1     -16.9024      2.00000
      2      -9.3935      2.00000
      3      -9.3035      2.00000
      4      -9.1840      2.00000
      5      -0.3090      0.00000
      6       0.5635      0.00000
      7       0.6738      0.00000
      8       0.6968      0.00000

 k-point     4 :      -0.2500   -0.2500    0.2500
  band No.  band energies     occupation 
      1     -16.9024      2.00000
      2      -9.3936      2.00000
      3      -9.3036      2.00000
      4      -9.1840      2.00000
      5      -0.3113      0.00000
      6       0.5644      0.00000
      7       0.6778      0.00000
      8       0.7104      0.00000


--------------------------------------------------------------------------------------------------------


 soft charge-density along one line, spin component           1
         0         1         2         3         4         5         6         7         8         9
 total charge-density along one line
 
 pseudopotential strength for first ion, spin component:           1
 -2.340  -4.033  -0.001  -0.001   0.001
 -4.033  -6.862  -0.003  -0.004   0.002
 -0.001  -0.003  -0.338   0.002  -0.001
 -0.001  -0.004   0.002  -0.337  -0.001
  0.001   0.002  -0.001  -0.001  -0.339
 total augmentation occupancy for first ion, spin component:           1
  3.507  -0.632   0.236   0.316  -0.141
 -0.632   0.128  -0.044  -0.059   0.026
  0.236  -0.044   0.022   0.018  -0.008
  0.316  -0.059   0.018   0.032  -0.011
 -0.141   0.026  -0.008  -0.011   0.013


------------------------ aborting loop because EDIFF is reached ----------------------------------------


    CHARGE:  cpu time    0.0148: real time    0.0148
    FORLOC:  cpu time    0.0100: real time    0.0100
    FORNL :  cpu time    0.0170: real time    0.0170
    STRESS:  cpu time    0.1349: real time    0.1353
    FORCOR:  cpu time    0.1126: real time    0.1126
    FORHAR:  cpu time    0.0346: real time    0.0346
    MIXING:  cpu time    0.0060: real time    0.0060
    OFIELD:  cpu time    0.0000: real time    0.0000

  FORCE on cell =-STRESS in cart. coord.  units (eV):
  Direction    XX          YY          ZZ          XY          YZ          ZX
  --------------------------------------------------------------------------------------
  Alpha Z     0.24281     0.24281     0.24281
  Ewald      43.75717    42.06393    43.39505    -1.48901    -0.88609    -1.43033
  Hartree    95.83369    93.17804    95.91671    -0.38738     0.08578    -0.79426
  E(xc)     -27.24498   -27.22572   -27.24650    -0.00501    -0.00020    -0.00900
  Local    -198.28600  -193.89773  -198.15224     1.54689     0.42534     2.14970
  n-local   -15.99305   -15.90624   -15.97353     0.02042     0.04460    -0.03133
  augment     0.11374     0.11505     0.11471     0.00280     0.00380    -0.00020
  Kinetic   101.63739   100.62845   101.67817     0.22191    -0.02184     0.46060
  Fock        0.00000     0.00000     0.00000     0.00000     0.00000     0.00000
  -------------------------------------------------------------------------------------
  Total       0.06076    -0.80141    -0.02481    -0.08939    -0.34859     0.34518
  in kB       0.09757    -1.28694    -0.03984    -0.14355    -0.55979     0.55431
  external pressure =       -0.41 kB  Pullay stress =        0.00 kB

  kinetic pressure (ideal gas correction) =      0.00 kB
  total pressure  =     -0.41 kB
  Total+kin.     0.098      -1.287      -0.040      -0.144      -0.560       0.554

 VOLUME and BASIS-vectors are now :
 -----------------------------------------------------------------------------
  energy-cutoff  :      400.00
  volume of cell :      997.71
      direct lattice vectors                 reciprocal lattice vectors
     9.900849440  0.000000000  0.000000000     0.101001435  0.001004424  0.002391543
    -0.101388213 10.195249925  0.000000000     0.000000000  0.098084893 -0.000578698
    -0.234616698  0.058315363  9.884016786     0.000000000  0.000000000  0.101173442

  length of vectors
     9.900849440 10.195754048  9.886972919     0.101034738  0.098086600  0.101173442


 FORCES acting on ions
    electron-ion (+dipol)            ewald-force                    non-local-force                 convergence-correction
 -----------------------------------------------------------------------------------------------
   -.176E+02 0.295E+02 0.396E+02   0.193E+02 -.322E+02 -.435E+02   -.181E+01 0.302E+01 0.403E+01   0.361E-04 -.835E-04 -.918E-04
   0.529E+02 -.650E+01 0.356E+01   -.590E+02 0.719E+01 -.405E+01   0.563E+01 -.703E+00 0.347E+00   -.123E-03 0.132E-04 -.245E-05
   -.225E+02 -.474E+02 0.132E+01   0.247E+02 0.519E+02 -.142E+01   -.226E+01 -.485E+01 0.138E+00   0.489E-04 0.129E-03 0.161E-05
   -.111E+02 0.252E+02 -.460E+02   0.125E+02 -.281E+02 0.515E+02   -.116E+01 0.272E+01 -.493E+01   0.171E-04 -.660E-04 0.107E-03
   -.214E+01 -.102E+01 0.213E+01   0.248E+01 0.121E+01 -.253E+01   0.656E-01 0.783E-01 -.185E+00   -.541E-04 -.203E-04 0.371E-04
 -----------------------------------------------------------------------------------------------
   -.459E+00 -.272E+00 0.597E+00   0.711E-14 0.000E+00 -.711E-14   0.459E+00 0.272E+00 -.597E+00   -.748E-04 -.273E-04 0.519E-04
 
 
 POSITION                                       TOTAL-FORCE (eV/Angst)
 -----------------------------------------------------------------------------------
      5.20351      4.16719      3.56547        -0.150571      0.255553      0.164060
      3.75777      4.92094      4.33107        -0.437364     -0.012950     -0.144263
      5.30515      5.78988      4.37481        -0.021339     -0.344858      0.035349
      5.05345      4.28276      5.32958         0.207300     -0.161653      0.528421
      4.83179      4.78971      4.40175         0.401495      0.263627     -0.583237
 -----------------------------------------------------------------------------------
    total drift:                               -0.000479     -0.000281      0.000329


--------------------------------------------------------------------------------------------------------



  FREE ENERGIE OF THE ION-ELECTRON SYSTEM (eV)
  ---------------------------------------------------
  free  energy   TOTEN  =       -24.01482364 eV

  energy  without entropy=      -24.01482364  energy(sigma->0) =      -24.01482364
 


--------------------------------------------------------------------------------------------------------


    POTLOK:  cpu time    0.1146: real time    0.1146


--------------------------------------------------------------------------------------------------------


 stress matrix after NEB project (eV)
      0.06076     -0.08939      0.34518
     -0.08939     -0.80141     -0.34859
      0.34518     -0.34859     -0.02481
  FORCES: max atom, RMS     0.755555    0.522875
  FORCE total and by dimension    1.169184    0.583237
  Stress total and by dimension    1.069519    0.801407
           RANDOM_SEED =         581389729                0                0
           RANDOM_SEED =         581389729               30                0
   IONSTEP:  cpu time    0.0028: real time    0.0057

  ENERGY OF THE ELECTRON-ION-THERMOSTAT SYSTEM (eV)
  ---------------------------------------------------
% ion-electron   TOTEN  =       -24.014824  see above
  kinetic energy EKIN   =         0.000256
  kin. lattice  EKIN_LAT=         0.000000  (temperature    0.49 K)
  nose potential ES     =         0.000000
  nose kinetic   EPS    =         0.000000
  ---------------------------------------------------
  total energy   ETOTAL =       -24.014568 eV

  maximum distance moved by ions :      0.15E-03

    WAVPRE:  cpu time    0.0338: real time    0.0338
    FEWALD:  cpu time    0.0003: real time    0.0003
    ORTHCH:  cpu time    0.0078: real time    0.0079
     LOOP+:  cpu time    6.0243: real time    6.0749


--------------------------------------- Iteration      2(   1)  ---------------------------------------


    POTLOK:  cpu time    0.1144: real time    0.1144
    SETDIJ:  cpu time    0.0014: real time    0.0014
     EDDAV:  cpu time    0.1260: real time    0.1261
       DOS:  cpu time    0.0002: real time    0.0002
    CHARGE:  cpu time    0.0149: real time    0.0149
    MIXING:  cpu time    0.0050: real time    0.0050
    --------------------------------------------
      LOOP:  cpu time    0.2620: real time    0.2621

 eigenvalue-minimisations  :    64
 total energy-change (2. order) :-0.1952878E-02  (-0.2131466E-03)
 number of electron       7.9999999 magnetization 
 augmentation part        0.1858876 magnetization 

 Broyden mixing:
  rms(total) = 0.19303E-02    rms(broyden)= 0.19290E-02
  rms(prec ) = 0.22682E-02
  weight for this iteration     100.00

 Free energy of the ion-electron system (eV)
  ---------------------------------------------------
  alpha Z        PSCENC =         0.24280711
  Ewald energy   TEWEN  =       129.15879505
  -Hartree energ DENC   =      -284.89742662
  -exchange      EXHF   =         0.00000000
  -V(xc)+E(xc)   XCENC  =        24.76650778
  PAW double counting   =       470.50836317     -471.29792564
  entropy T*S    EENTRO =        -0.00000000
  eigenvalues    EBANDS =       -89.53965137
  atomic energy  EATOM  =       197.04175453
  Solvation  Ediel_sol  =         0.00000000
  ---------------------------------------------------
  free energy    TOTEN  =       -24.01677599 eV

  energy without entropy =      -24.01677599  energy(sigma->0) =      -24.01677599


--------------------------------------------------------------------------------------------------------




--------------------------------------- Iteration      2(   2)  ---------------------------------------


    POTLOK:  cpu time    0.1161: real time    0.1161
    SETDIJ:  cpu time    0.0014: real time    0.0014
    EDDIAG:  cpu time    0.0294: real time    0.0294
  RMM-DIIS:  cpu time    0.1297: real time    0.1297
    ORTHCH:  cpu time    0.0013: real time    0.0013
       DOS:  cpu time    0.0002: real time    0.0002
    CHARGE:  cpu time    0.0150: real time    0.0150
    MIXING:  cpu time    0.0038: real time    0.0038
    --------------------------------------------
      LOOP:  cpu time    0.2969: real time    0.2969

 eigenvalue-minimisations  :    64
 total energy-change (2. order) :-0.1435285E-05  (-0.8072356E-05)
 number of electron       7.9999999 magnetization 
 augmentation part        0.1858891 magnetization 

 Broyden mixing:
  rms(total) = 0.13100E-02    rms(broyden)= 0.13095E-02
  rms(prec ) = 0.15209E-02
  weight for this iteration     100.00

 eigenvalues of (default mixing * dielectric matrix)
  average eigenvalue GAMMA=   1.8490
  1.8490

 Free energy of the ion-electron system (eV)
  ---------------------------------------------------
  alpha Z        PSCENC =         0.24280711
  Ewald energy   TEWEN  =       129.15879505
  -Hartree energ DENC   =      -284.88537006
  -exchange      EXHF   =         0.00000000
  -V(xc)+E(xc)   XCENC  =        24.76583717
  PAW double counting   =       470.31118136     -471.10060689
  entropy T*S    EENTRO =        -0.00000000
  eigenvalues    EBANDS =       -89.55117570
  atomic energy  EATOM  =       197.04175453
  Solvation  Ediel_sol  =         0.00000000
  ---------------------------------------------------
  free energy    TOTEN  =       -24.01677742 eV

  energy without entropy =      -24.01677742  energy(sigma->0) =      -24.01677742


--------------------------------------------------------------------------------------------------------




--------------------------------------- Iteration      2(   3)  ---------------------------------------


    POTLOK:  cpu time    0.1139: real time    0.1139
    SETDIJ:  cpu time    0.0014: real time    0.0014
    EDDIAG:  cpu time    0.0292: real time    0.0292
  RMM-DIIS:  cpu time    0.1295: real time    0.1295
    ORTHCH:  cpu time    0.0013: real time    0.0013
       DOS:  cpu time    0.0002: real time    0.0002
    CHARGE:  cpu time    0.0151: real time    0.0151
    MIXING:  cpu time    0.0038: real time    0.0038
    --------------------------------------------
      LOOP:  cpu time    0.2945: real time    0.2945

 eigenvalue-minimisations  :    64
 total energy-change (2. order) : 0.1008861E-05  (-0.1046684E-05)
 number of electron       7.9999999 magnetization 
 augmentation part        0.1859011 magnetization 

 Broyden mixing:
  rms(total) = 0.33211E-03    rms(broyden)= 0.33179E-03
  rms(prec ) = 0.39635E-03
  weight for this iteration     100.00

 eigenvalues of (default mixing * dielectric matrix)
  average eigenvalue GAMMA=   1.6387
  1.0935  2.1839

 Free energy of the ion-electron system (eV)
  ---------------------------------------------------
  alpha Z        PSCENC =         0.24280711
  Ewald energy   TEWEN  =       129.15879505
  -Hartree energ DENC   =      -284.87678561
  -exchange      EXHF   =         0.00000000
  -V(xc)+E(xc)   XCENC  =        24.76535024
  PAW double counting   =       470.15131178     -470.94061228
  entropy T*S    EENTRO =        -0.00000000
  eigenvalues    EBANDS =       -89.55939724
  atomic energy  EATOM  =       197.04175453
  Solvation  Ediel_sol  =         0.00000000
  ---------------------------------------------------
  free energy    TOTEN  =       -24.01677642 eV

  energy without entropy =      -24.01677642  energy(sigma->0) =      -24.01677642


--------------------------------------------------------------------------------------------------------




--------------------------------------- Iteration      2(   4)  ---------------------------------------


    POTLOK:  cpu time    0.1147: real time    0.1147
    SETDIJ:  cpu time    0.0014: real time    0.0014
    EDDIAG:  cpu time    0.0293: real time    0.0293
  RMM-DIIS:  cpu time    0.1034: real time    0.1035
    ORTHCH:  cpu time    0.0014: real time    0.0014
       DOS:  cpu time    0.0002: real time    0.0002
    --------------------------------------------
      LOOP:  cpu time    0.2504: real time    0.2504

 eigenvalue-minimisations  :    48
 total energy-change (2. order) : 0.7090847E-07  (-0.3259278E-07)
 number of electron       7.9999999 magnetization 
 augmentation part        0.1859011 magnetization 

 Free energy of the ion-electron system (eV)
  ---------------------------------------------------
  alpha Z        PSCENC =         0.24280711
  Ewald energy   TEWEN  =       129.15879505
  -Hartree energ DENC   =      -284.87897636
  -exchange      EXHF   =         0.00000000
  -V(xc)+E(xc)   XCENC  =        24.76543973
  PAW double counting   =       470.13134271     -470.92066677
  entropy T*S    EENTRO =        -0.00000000
  eigenvalues    EBANDS =       -89.55727235
  atomic energy  EATOM  =       197.04175453
  Solvation  Ediel_sol  =         0.00000000
  ---------------------------------------------------
  free energy    TOTEN  =       -24.01677634 eV

  energy without entropy =      -24.01677634  energy(sigma->0) =      -24.01677634


--------------------------------------------------------------------------------------------------------




 average (electrostatic) potential at core
  the test charge radii are     0.5201  0.6991
  (the norm of the test charge is              1.0000)
       1 -41.4254       2 -41.5709       3 -41.4266       4 -41.6060       5 -57.9482
 
 
 
 E-fermi :  -8.2346     XC(G=0):  -0.6918     alpha+bet : -0.2112


 k-point     1 :       0.2500    0.2500    0.2500
  band No.  band energies     occupation 
      1     -16.9002      2.00000
      2      -9.3896      2.00000
      3      -9.3026      2.00000
      4      -9.1860      2.00000
      5      -0.3059      0.00000
      6       0.5711      0.00000
      7       0.6705      0.00000
      8       0.6998      0.00000

 k-point     2 :      -0.2500    0.2500    0.2500
  band No.  band energies     occupation 
      1     -16.9002      2.00000
      2      -9.3897      2.00000
      3      -9.3027      2.00000
      4      -9.1862      2.00000
      5      -0.3125      0.00000
      6       0.5759      0.00000
      7       0.6876      0.00000
      8       0.7191      0.00000

 k-point     3 :       0.2500   -0.2500    0.2500
  band No.  band energies     occupation 
      1     -16.9002      2.00000
      2      -9.3897      2.00000
      3      -9.3026      2.00000
      4      -9.1861      2.00000
      5      -0.3071      0.00000
      6       0.5692      0.00000
      7       0.6762      0.00000
      8       0.7018      0.00000

 k-point     4 :      -0.2500   -0.2500    0.2500
  band No.  band energies     occupation 
      1     -16.9002      2.00000
      2      -9.3898      2.00000
      3      -9.3027      2.00000
      4      -9.1862      2.00000
      5      -0.3096      0.00000
      6       0.5734      0.00000
      7       0.6800      0.00000
      8       0.7130      0.00000


--------------------------------------------------------------------------------------------------------


 soft charge-density along one line, spin component           1
         0         1         2         3         4         5         6         7         8         9
 total charge-density along one line
 
 pseudopotential strength for first ion, spin component:           1
 -2.340  -4.033  -0.001  -0.001   0.001
 -4.033  -6.862  -0.003  -0.004   0.002
 -0.001  -0.003  -0.338   0.002  -0.001
 -0.001  -0.004   0.002  -0.337  -0.001
  0.001   0.002  -0.001  -0.001  -0.339
 total augmentation occupancy for first ion, spin component:           1
  3.510  -0.633   0.236   0.317  -0.141
 -0.633   0.128  -0.044  -0.059   0.026
  0.236  -0.044   0.022   0.018  -0.008
  0.317  -0.059   0.018   0.033  -0.011
 -0.141   0.026  -0.008  -0.011   0.013


------------------------ aborting loop because EDIFF is reached ----------------------------------------


    CHARGE:  cpu time    0.0147: real time    0.0147
    FORLOC:  cpu time    0.0100: real time    0.0100
    FORNL :  cpu time    0.0170: real time    0.0170
    STRESS:  cpu time    0.1348: real time    0.1348
    FORCOR:  cpu time    0.1142: real time    0.1142
    FORHAR:  cpu time    0.0370: real time    0.0370
    MIXING:  cpu time    0.0052: real time    0.0052
    OFIELD:  cpu time    0.0000: real time    0.0000

  FORCE on cell =-STRESS in cart. coord.  units (eV):
  Direction    XX          YY          ZZ          XY          YZ          ZX
  --------------------------------------------------------------------------------------
  Alpha Z     0.24281     0.24281     0.24281
  Ewald      43.72316    42.05047    43.38510    -1.44151    -0.82522    -1.43266
  Hartree    95.83067    93.13829    95.91295    -0.38554     0.07802    -0.78065
  E(xc)     -27.24194   -27.22331   -27.24346    -0.00498    -0.00035    -0.00872
  Local    -198.26718  -193.82933  -198.14761     1.51432     0.40148     2.12764
  n-local   -15.98444   -15.90369   -15.96610     0.01867     0.04100    -0.02900
  augment     0.11403     0.11493     0.11491     0.00263     0.00348    -0.00006
  Kinetic   101.60893   100.63258   101.65052     0.22124    -0.01340     0.44605
  Fock        0.00000     0.00000     0.00000     0.00000     0.00000     0.00000
[...]
      5.30694      5.77059      4.37752         0.153703      0.216705      0.013598
      5.06604      4.27748      5.35716        -0.065751      0.235562     -0.356659
      4.83319      4.79072      4.39950        -0.481625     -0.261980      0.569802
 -----------------------------------------------------------------------------------
    total drift:                               -0.000230     -0.000241      0.000111


--------------------------------------------------------------------------------------------------------



  FREE ENERGIE OF THE ION-ELECTRON SYSTEM (eV)
  ---------------------------------------------------
  free  energy   TOTEN  =       -24.02207936 eV

  energy  without entropy=      -24.02207936  energy(sigma->0) =      -24.02207936
 
 d Force =-0.2691026E-02[-0.322E-02,-0.217E-02]  d Energy =-0.2691797E-02 0.771E-06
 d Force = 0.1152025E+00[ 0.114E+00, 0.116E+00]  d Ewald  = 0.1152018E+00 0.679E-06


--------------------------------------------------------------------------------------------------------


    POTLOK:  cpu time    0.1198: real time    0.1198


--------------------------------------------------------------------------------------------------------


 stress matrix after NEB project (eV)
     -0.65274      0.18125     -0.14746
      0.18125     -0.22379      0.32652
     -0.14746      0.32652     -0.53922
  FORCES: max atom, RMS     0.790741    0.460757
  FORCE total and by dimension    1.030284    0.569802
  Stress total and by dimension    1.043705    0.652737
           RANDOM_SEED =         581389729               30                0
   IONSTEP:  cpu time    0.0002: real time    0.0002

  ENERGY OF THE ELECTRON-ION-THERMOSTAT SYSTEM (eV)
  ---------------------------------------------------
% ion-electron   TOTEN  =       -24.022079  see above
  kinetic energy EKIN   =         0.007411
  kin. lattice  EKIN_LAT=         0.000000  (temperature   14.33 K)
  nose potential ES     =         0.000000
  nose kinetic   EPS    =         0.000000
  ---------------------------------------------------
  total energy   ETOTAL =       -24.014668 eV

  maximum distance moved by ions :      0.33E-03

    WAVPRE:  cpu time    0.0387: real time    0.0388
    FEWALD:  cpu time    0.0003: real time    0.0003
    ORTHCH:  cpu time    0.0077: real time    0.0077
 Prediction of Wavefunctions ALPHA= 2.165 BETA=-1.199
     LOOP+:  cpu time    2.0915: real time    2.0917


--------------------------------------- Iteration     10(   1)  ---------------------------------------


    POTLOK:  cpu time    0.1120: real time    0.1120
    SETDIJ:  cpu time    0.0014: real time    0.0014
     EDDAV:  cpu time    0.1375: real time    0.1375
       DOS:  cpu time    0.0002: real time    0.0002
    CHARGE:  cpu time    0.0147: real time    0.0147
    MIXING:  cpu time    0.0052: real time    0.0052
    --------------------------------------------
      LOOP:  cpu time    0.2710: real time    0.2711

 eigenvalue-minimisations  :    72
 total energy-change (2. order) : 0.2320892E-02  (-0.2343348E-04)
 number of electron       8.0000003 magnetization 
 augmentation part        0.1845771 magnetization 

 Broyden mixing:
  rms(total) = 0.11606E-03    rms(broyden)= 0.11588E-03
  rms(prec ) = 0.14607E-03
  weight for this iteration     100.00

 Free energy of the ion-electron system (eV)
  ---------------------------------------------------
  alpha Z        PSCENC =         0.24280711
  Ewald energy   TEWEN  =       128.06420677
  -Hartree energ DENC   =      -283.92248632
  -exchange      EXHF   =         0.00000000
  -V(xc)+E(xc)   XCENC  =        24.71508940
  PAW double counting   =       463.58518175     -464.37073754
  entropy T*S    EENTRO =        -0.00000000
  eigenvalues    EBANDS =       -89.37557337
  atomic energy  EATOM  =       197.04175453
  Solvation  Ediel_sol  =         0.00000000
  ---------------------------------------------------
  free energy    TOTEN  =       -24.01975767 eV

  energy without entropy =      -24.01975767  energy(sigma->0) =      -24.01975767


--------------------------------------------------------------------------------------------------------




--------------------------------------- Iteration     10(   2)  ---------------------------------------


    POTLOK:  cpu time    0.1144: real time    0.1144
    SETDIJ:  cpu time    0.0014: real time    0.0014
    EDDIAG:  cpu time    0.0293: real time    0.0294
  RMM-DIIS:  cpu time    0.1073: real time    0.1074
    ORTHCH:  cpu time    0.0014: real time    0.0014
       DOS:  cpu time    0.0002: real time    0.0002
    CHARGE:  cpu time    0.0149: real time    0.0149
    MIXING:  cpu time    0.0037: real time    0.0037
    --------------------------------------------
      LOOP:  cpu time    0.2727: real time    0.2727

 eigenvalue-minimisations  :    56
 total energy-change (2. order) :-0.8325542E-06  (-0.2773681E-06)
 number of electron       8.0000003 magnetization 
 augmentation part        0.1845828 magnetization 

 Broyden mixing:
  rms(total) = 0.99327E-04    rms(broyden)= 0.99216E-04
  rms(prec ) = 0.13001E-03
  weight for this iteration     100.00

 eigenvalues of (default mixing * dielectric matrix)
  average eigenvalue GAMMA=   0.6354
  0.6354

 Free energy of the ion-electron system (eV)
  ---------------------------------------------------
  alpha Z        PSCENC =         0.24280711
  Ewald energy   TEWEN  =       128.06420677
  -Hartree energ DENC   =      -283.92049943
  -exchange      EXHF   =         0.00000000
  -V(xc)+E(xc)   XCENC  =        24.71496242
  PAW double counting   =       463.58451364     -464.37003295
  entropy T*S    EENTRO =        -0.00000000
  eigenvalues    EBANDS =       -89.37747059
  atomic energy  EATOM  =       197.04175453
  Solvation  Ediel_sol  =         0.00000000
  ---------------------------------------------------
  free energy    TOTEN  =       -24.01975850 eV

  energy without entropy =      -24.01975850  energy(sigma->0) =      -24.01975850


--------------------------------------------------------------------------------------------------------




--------------------------------------- Iteration     10(   3)  ---------------------------------------


    POTLOK:  cpu time    0.1124: real time    0.1124
    SETDIJ:  cpu time    0.0014: real time    0.0014
    EDDIAG:  cpu time    0.0291: real time    0.0291
  RMM-DIIS:  cpu time    0.1023: real time    0.1023
    ORTHCH:  cpu time    0.0014: real time    0.0014
       DOS:  cpu time    0.0002: real time    0.0002
    CHARGE:  cpu time    0.0150: real time    0.0150
    MIXING:  cpu time    0.0040: real time    0.0040
    --------------------------------------------
      LOOP:  cpu time    0.2657: real time    0.2657

 eigenvalue-minimisations  :    47
 total energy-change (2. order) :-0.3028478E-06  (-0.1790193E-07)
 number of electron       8.0000003 magnetization 
 augmentation part        0.1845840 magnetization 

 Broyden mixing:
  rms(total) = 0.75997E-04    rms(broyden)= 0.75983E-04
  rms(prec ) = 0.99161E-04
  weight for this iteration     100.00

 eigenvalues of (default mixing * dielectric matrix)
  average eigenvalue GAMMA=   1.5056
  1.5056  1.5056

 Free energy of the ion-electron system (eV)
  ---------------------------------------------------
  alpha Z        PSCENC =         0.24280711
  Ewald energy   TEWEN  =       128.06420677
  -Hartree energ DENC   =      -283.91952722
  -exchange      EXHF   =         0.00000000
  -V(xc)+E(xc)   XCENC  =        24.71491759
  PAW double counting   =       463.58047428     -464.36598279
  entropy T*S    EENTRO =        -0.00000000
  eigenvalues    EBANDS =       -89.37840908
  atomic energy  EATOM  =       197.04175453
  Solvation  Ediel_sol  =         0.00000000
  ---------------------------------------------------
  free energy    TOTEN  =       -24.01975881 eV

  energy without entropy =      -24.01975881  energy(sigma->0) =      -24.01975881


--------------------------------------------------------------------------------------------------------




--------------------------------------- Iteration     10(   4)  ---------------------------------------


    POTLOK:  cpu time    0.1130: real time    0.1130
    SETDIJ:  cpu time    0.0014: real time    0.0014
    EDDIAG:  cpu time    0.0292: real time    0.0292
  RMM-DIIS:  cpu time    0.1029: real time    0.1029
    ORTHCH:  cpu time    0.0013: real time    0.0013
       DOS:  cpu time    0.0002: real time    0.0002
    --------------------------------------------
      LOOP:  cpu time    0.2479: real time    0.2479

 eigenvalue-minimisations  :    48
 total energy-change (2. order) :-0.8948016E-06  (-0.2102194E-07)
 number of electron       8.0000003 magnetization 
 augmentation part        0.1845840 magnetization 

 Free energy of the ion-electron system (eV)
  ---------------------------------------------------
  alpha Z        PSCENC =         0.24280711
  Ewald energy   TEWEN  =       128.06420677
  -Hartree energ DENC   =      -283.91746799
  -exchange      EXHF   =         0.00000000
  -V(xc)+E(xc)   XCENC  =        24.71483395
  PAW double counting   =       463.57086176     -464.35635133
  entropy T*S    EENTRO =        -0.00000000
  eigenvalues    EBANDS =       -89.38040450
  atomic energy  EATOM  =       197.04175453
  Solvation  Ediel_sol  =         0.00000000
  ---------------------------------------------------
  free energy    TOTEN  =       -24.01975970 eV

  energy without entropy =      -24.01975970  energy(sigma->0) =      -24.01975970


--------------------------------------------------------------------------------------------------------




 average (electrostatic) potential at core
  the test charge radii are     0.5201  0.6991
  (the norm of the test charge is              1.0000)
       1 -41.5755       2 -41.3923       3 -41.5764       4 -41.3662       5 -57.9770
 
 
 
 E-fermi :  -8.2189     XC(G=0):  -0.6992     alpha+bet : -0.2112


 k-point     1 :       0.2500    0.2500    0.2500
  band No.  band energies     occupation 
      1     -16.8633      2.00000
      2      -9.3591      2.00000
      3      -9.2771      2.00000
      4      -9.1906      2.00000
      5      -0.3132      0.00000
      6       0.5606      0.00000
      7       0.6666      0.00000
      8       0.6989      0.00000

 k-point     2 :      -0.2500    0.2500    0.2500
  band No.  band energies     occupation 
      1     -16.8633      2.00000
      2      -9.3591      2.00000
      3      -9.2772      2.00000
      4      -9.1907      2.00000
      5      -0.3200      0.00000
      6       0.5696      0.00000
      7       0.6853      0.00000
      8       0.7131      0.00000

 k-point     3 :       0.2500   -0.2500    0.2500
  band No.  band energies     occupation 
      1     -16.8633      2.00000
      2      -9.3591      2.00000
      3      -9.2771      2.00000
      4      -9.1906      2.00000
      5      -0.3132      0.00000
      6       0.5488      0.00000
      7       0.6776      0.00000
      8       0.6999      0.00000

 k-point     4 :      -0.2500   -0.2500    0.2500
  band No.  band energies     occupation 
      1     -16.8633      2.00000
      2      -9.3591      2.00000
      3      -9.2772      2.00000
      4      -9.1907      2.00000
      5      -0.3168      0.00000
      6       0.5622      0.00000
      7       0.6805      0.00000
      8       0.7075      0.00000


--------------------------------------------------------------------------------------------------------


 soft charge-density along one line, spin component           1
         0         1         2         3         4         5         6         7         8         9
 total charge-density along one line
 
 pseudopotential strength for first ion, spin component:           1
 -2.342  -4.035  -0.001  -0.001   0.001
 -4.035  -6.868  -0.003  -0.004   0.002
 -0.001  -0.003  -0.337   0.002  -0.001
 -0.001  -0.004   0.002  -0.335  -0.001
  0.001   0.002  -0.001  -0.001  -0.338
 total augmentation occupancy for first ion, spin component:           1
  3.581  -0.644   0.247   0.336  -0.147
 -0.644   0.130  -0.045  -0.062   0.027
  0.247  -0.045   0.024   0.019  -0.008
  0.336  -0.062   0.019   0.036  -0.011
 -0.147   0.027  -0.008  -0.011   0.014


------------------------ aborting loop because EDIFF is reached ----------------------------------------


    CHARGE:  cpu time    0.0148: real time    0.0148
    FORLOC:  cpu time    0.0100: real time    0.0100
    FORNL :  cpu time    0.0170: real time    0.0170
    STRESS:  cpu time    0.1344: real time    0.1344
    FORCOR:  cpu time    0.1144: real time    0.1144
    FORHAR:  cpu time    0.0368: real time    0.0368
    MIXING:  cpu time    0.0043: real time    0.0043
    OFIELD:  cpu time    0.0000: real time    0.0000

  FORCE on cell =-STRESS in cart. coord.  units (eV):
  Direction    XX          YY          ZZ          XY          YZ          ZX
  --------------------------------------------------------------------------------------
  Alpha Z     0.24281     0.24281     0.24281
  Ewald      43.25393    41.17929    43.63094    -0.04772     0.63967    -1.05166
  Hartree    95.84279    92.12237    95.95332    -0.24068    -0.03053    -0.36634
  E(xc)     -27.18167   -27.18087   -27.18237    -0.00211    -0.00239    -0.00057
  Local    -198.14868  -191.69975  -198.52216     0.40134    -0.31227     1.17239
  n-local   -15.81239   -15.86981   -15.82248    -0.01812    -0.03734     0.02185
  augment     0.11981     0.11323     0.11819    -0.00129    -0.00303     0.00229
  Kinetic   100.97183   100.92946   100.99716     0.10203     0.11939     0.02621
  Fock        0.00000     0.00000     0.00000     0.00000     0.00000     0.00000
  -------------------------------------------------------------------------------------
  Total      -0.71157    -0.16328    -0.58460     0.19346     0.37350    -0.19584
  in kB      -1.14269    -0.26220    -0.93878     0.31066     0.59979    -0.31449
  external pressure =       -0.78 kB  Pullay stress =        0.00 kB

  kinetic pressure (ideal gas correction) =      0.01 kB
  total pressure  =     -0.77 kB
  Total+kin.    -1.136      -0.256      -0.932       0.309       0.601      -0.308

 VOLUME and BASIS-vectors are now :
 -----------------------------------------------------------------------------
  energy-cutoff  :      400.00
  volume of cell :      997.71
      direct lattice vectors                 reciprocal lattice vectors
     9.900849440  0.000000000  0.000000000     0.101001435  0.001004424  0.002391543
    -0.101388213 10.195249925  0.000000000     0.000000000  0.098084893 -0.000578698
    -0.234616698  0.058315363  9.884016786     0.000000000  0.000000000  0.101173442

  length of vectors
     9.900849440 10.195754048  9.886972919     0.101034738  0.098086600  0.101173442


 FORCES acting on ions
    electron-ion (+dipol)            ewald-force                    non-local-force                 convergence-correction
 -----------------------------------------------------------------------------------------------
   -.176E+02 0.297E+02 0.405E+02   0.196E+02 -.330E+02 -.450E+02   -.187E+01 0.315E+01 0.429E+01   0.641E-04 -.611E-04 -.127E-03
   0.517E+02 -.599E+01 0.380E+01   -.566E+02 0.653E+01 -.417E+01   0.526E+01 -.609E+00 0.377E+00   -.105E-03 0.239E-04 -.372E-04
   -.233E+02 -.479E+02 0.106E+01   0.259E+02 0.532E+02 -.116E+01   -.246E+01 -.508E+01 0.111E+00   0.792E-04 0.121E-03 -.314E-04
   -.110E+02 0.240E+02 -.449E+02   0.120E+02 -.262E+02 0.490E+02   -.110E+01 0.242E+01 -.453E+01   0.472E-04 -.479E-04 0.845E-04
   0.665E+00 0.452E+00 -.106E+01   -.907E+00 -.592E+00 0.137E+01   -.301E+00 -.158E+00 0.340E+00   0.855E-04 0.429E-04 -.118E-03
 -----------------------------------------------------------------------------------------------
   0.473E+00 0.269E+00 -.590E+00   -.355E-14 0.355E-14 -.711E-14   -.473E+00 -.270E+00 0.590E+00   0.171E-03 0.790E-04 -.229E-03
 
 
 POSITION                                       TOTAL-FORCE (eV/Angst)
 -----------------------------------------------------------------------------------
      5.19336      4.18416      3.57201         0.091322     -0.161323     -0.245951
      3.73358      4.91750      4.31923         0.382927     -0.061982      0.011960
      5.30825      5.76848      4.37810         0.159732      0.266476      0.008441
      5.06787      4.27810      5.35977        -0.091614      0.254353     -0.424873
      4.83319      4.79075      4.39940        -0.542714     -0.297792      0.650629
 -----------------------------------------------------------------------------------
    total drift:                               -0.000346     -0.000268      0.000204


--------------------------------------------------------------------------------------------------------



  FREE ENERGIE OF THE ION-ELECTRON SYSTEM (eV)
  ---------------------------------------------------
  free  energy   TOTEN  =       -24.01975970 eV

  energy  without entropy=      -24.01975970  energy(sigma->0) =      -24.01975970
 
 d Force =-0.2318307E-02[-0.260E-02,-0.204E-02]  d Energy =-0.2319655E-02 0.135E-05
 d Force = 0.8388508E-01[ 0.836E-01, 0.841E-01]  d Ewald  = 0.8388500E-01 0.853E-07


--------------------------------------------------------------------------------------------------------


    POTLOK:  cpu time    0.1159: real time    0.1159


--------------------------------------------------------------------------------------------------------


 stress matrix after NEB project (eV)
     -0.71157      0.19346     -0.19584
      0.19346     -0.16328      0.37350
     -0.19584      0.37350     -0.58460
  FORCES: max atom, RMS     0.898073    0.529568
  FORCE total and by dimension    1.184150    0.650629
  Stress total and by dimension    1.142504    0.711574
           RANDOM_SEED =         581389729               30                0
   IONSTEP:  cpu time    0.0002: real time    0.0002

  ENERGY OF THE ELECTRON-ION-THERMOSTAT SYSTEM (eV)
  ---------------------------------------------------
% ion-electron   TOTEN  =       -24.019760  see above
  kinetic energy EKIN   =         0.005145
  kin. lattice  EKIN_LAT=         0.000000  (temperature    9.95 K)
  nose potential ES     =         0.000000
  nose kinetic   EPS    =         0.000000
  ---------------------------------------------------
  total energy   ETOTAL =       -24.014614 eV

  maximum distance moved by ions :      0.26E-03


 mean value of Nose-termostat <S>:     1.000 mean value of <T> :    14.609
 mean temperature <T/S>/<1/S>  :    14.609

    WAVPRE:  cpu time    0.0427: real time    0.0427
    FEWALD:  cpu time    0.0003: real time    0.0003
    ORTHCH:  cpu time    0.0078: real time    0.0078
 Prediction of Wavefunctions ALPHA= 2.092 BETA=-1.118
    POTLOK:  cpu time    0.1126: real time    0.1126
    EDDIAG:  cpu time    0.0299: real time    0.0299
     LOOP+:  cpu time    1.7025: real time    1.7026
    4ORBIT:  cpu time    0.0000: real time    0.0005

 total amount of memory used by VASP MPI-rank0    54674. kBytes
=======================================================================

   base      :      30000. kBytes
   nonl-proj :       2687. kBytes
   fftplans  :       7854. kBytes
   grid      :      12378. kBytes
   one-center:          6. kBytes
   wavefun   :       1749. kBytes
 
  
  
 General timing and accounting informations for this job:
 ========================================================
  
                  Total CPU time used (sec):       25.507
                            User time (sec):       24.122
                          System time (sec):        1.385
                         Elapsed time (sec):       25.969
  
                   Maximum memory used (kb):      177092.
                   Average memory used (kb):           0.
  
                          Minor page faults:       269655
                          Major page faults:          131
                 Voluntary context switches:          517
