   5   5   0   0
  0.2136089E+03  0.1020243E-08  0.1018991E-08  0.1027559E-08  0.5000000E-15
  1.000000000000000E-004
  CAR 
 unknown system                          
      2.68899623    -19.04440511  301     -8.39489696      1.00000000
    -19.044  0.0000E+00  0.0000E+00
    -18.972  0.0000E+00  0.0000E+00
    -18.900  0.0000E+00  0.0000E+00
    -18.827  0.0000E+00  0.0000E+00
    -18.755  0.0000E+00  0.0000E+00
    -18.682  0.0000E+00  0.0000E+00
    -18.610  0.0000E+00  0.0000E+00
    -18.537  0.0000E+00  0.0000E+00
    -18.465  0.0000E+00  0.0000E+00
    -18.392  0.0000E+00  0.0000E+00
    -18.320  0.0000E+00  0.0000E+00
    -18.248  0.0000E+00  0.0000E+00
    -18.175  0.1219E-13  0.8771E-15
    -18.103  0.6652E-12  0.4873E-13
    -18.030  0.2865E-10  0.2110E-11
    -17.958  0.9557E-09  0.7086E-10
    -17.885  0.2469E-07  0.1847E-08
    -17.813  0.4943E-06  0.3740E-07
    -17.740  0.7669E-05  0.5890E-06
    -17.668  0.9225E-04  0.7224E-05
    -17.596  0.8606E-03  0.6911E-04
    -17.523  0.6228E-02  0.5170E-03
    -17.451  0.3498E-01  0.3032E-02
    -17.378  0.1526E+00  0.1400E-01
    -17.306  0.5168E+00  0.5114E-01
    -17.233  0.1360E+01  0.1489E+00
    -17.161  0.2783E+01  0.3488E+00
    -17.088  0.4427E+01  0.6668E+00
    -17.016  0.5478E+01  0.1060E+01
    -16.944  0.5276E+01  0.1439E+01
    -16.871  0.3955E+01  0.1723E+01
    -16.799  0.2309E+01  0.1889E+01
    -16.726  0.1050E+01  0.1964E+01
    -16.654  0.3722E+00  0.1991E+01
    -16.581  0.1028E+00  0.1998E+01
    -16.509  0.2213E-01  0.2000E+01
    -16.436  0.3716E-02  0.2000E+01
    -16.364  0.4865E-03  0.2000E+01
    -16.292  0.4969E-04  0.2000E+01
    -16.219  0.3959E-05  0.2000E+01
    -16.147  0.2460E-06  0.2000E+01
    -16.074  0.1193E-07  0.2000E+01
    -16.002  0.4512E-09  0.2000E+01
    -15.929  0.1331E-10  0.2000E+01
    -15.857  0.3071E-12  0.2000E+01
    -15.784  0.4976E-14  0.2000E+01
    -15.712  0.0000E+00  0.2000E+01
    -15.640  0.0000E+00  0.2000E+01
    -15.567  0.0000E+00  0.2000E+01
    -15.495  0.0000E+00  0.2000E+01
    -15.422  0.0000E+00  0.2000E+01
    -15.350  0.0000E+00  0.2000E+01
    -15.277  0.0000E+00  0.2000E+01
    -15.205  0.0000E+00  0.2000E+01
    -15.132  0.0000E+00  0.2000E+01
    -15.060  0.0000E+00  0.2000E+01
    -14.988  0.0000E+00  0.2000E+01
    -14.915  0.0000E+00  0.2000E+01
    -14.843  0.0000E+00  0.2000E+01
    -14.770  0.0000E+00  0.2000E+01
    -14.698  0.0000E+00  0.2000E+01
    -14.625  0.0000E+00  0.2000E+01
    -14.553  0.0000E+00  0.2000E+01
    -14.480  0.0000E+00  0.2000E+01
    -14.408  0.0000E+00  0.2000E+01
    -14.336  0.0000E+00  0.2000E+01
    -14.263  0.0000E+00  0.2000E+01
    -14.191  0.0000E+00  0.2000E+01
    -14.118  0.0000E+00  0.2000E+01
    -14.046  0.0000E+00  0.2000E+01
    -13.973  0.0000E+00  0.2000E+01
    -13.901  0.0000E+00  0.2000E+01
    -13.828  0.0000E+00  0.2000E+01
    -13.756  0.0000E+00  0.2000E+01
    -13.683  0.0000E+00  0.2000E+01
    -13.611  0.0000E+00  0.2000E+01
    -13.539  0.0000E+00  0.2000E+01
    -13.466  0.0000E+00  0.2000E+01
    -13.394  0.0000E+00  0.2000E+01
    -13.321  0.0000E+00  0.2000E+01
    -13.249  0.0000E+00  0.2000E+01
    -13.176  0.0000E+00  0.2000E+01
    -13.104  0.0000E+00  0.2000E+01
    -13.031  0.0000E+00  0.2000E+01
    -12.959  0.0000E+00  0.2000E+01
    -12.887  0.0000E+00  0.2000E+01
    -12.814  0.0000E+00  0.2000E+01
    -12.742  0.0000E+00  0.2000E+01
    -12.669  0.0000E+00  0.2000E+01
    -12.597  0.0000E+00  0.2000E+01
    -12.524  0.0000E+00  0.2000E+01
    -12.452  0.0000E+00  0.2000E+01
    -12.379  0.0000E+00  0.2000E+01
    -12.307  0.0000E+00  0.2000E+01
    -12.235  0.0000E+00  0.2000E+01
    -12.162  0.0000E+00  0.2000E+01
    -12.090  0.0000E+00  0.2000E+01
    -12.017  0.0000E+00  0.2000E+01
    -11.945  0.0000E+00  0.2000E+01
    -11.872  0.0000E+00  0.2000E+01
    -11.800  0.0000E+00  0.2000E+01
    -11.727  0.0000E+00  0.2000E+01
    -11.655  0.0000E+00  0.2000E+01
    -11.583  0.0000E+00  0.2000E+01
    -11.510  0.0000E+00  0.2000E+01
    -11.438  0.0000E+00  0.2000E+01
    -11.365  0.0000E+00  0.2000E+01
    -11.293  0.0000E+00  0.2000E+01
    -11.220  0.0000E+00  0.2000E+01
    -11.148  0.0000E+00  0.2000E+01
    -11.075  0.0000E+00  0.2000E+01
    -11.003  0.0000E+00  0.2000E+01
    -10.931  0.0000E+00  0.2000E+01
    -10.858  0.0000E+00  0.2000E+01
    -10.786  0.0000E+00  0.2000E+01
    -10.713  0.0000E+00  0.2000E+01
    -10.641  0.5913E-14  0.2000E+01
    -10.568  0.3208E-12  0.2000E+01
    -10.496  0.1350E-10  0.2000E+01
    -10.423  0.4433E-09  0.2000E+01
    -10.351  0.1138E-07  0.2000E+01
    -10.279  0.2283E-06  0.2000E+01
    -10.206  0.3590E-05  0.2000E+01
    -10.134  0.4428E-04  0.2000E+01
    -10.061  0.4296E-03  0.2000E+01
     -9.989  0.3288E-02  0.2000E+01
     -9.916  0.1994E-01  0.2002E+01
     -9.844  0.9626E-01  0.2009E+01
     -9.771  0.3721E+00  0.2035E+01
     -9.699  0.1160E+01  0.2118E+01
     -9.627  0.2931E+01  0.2329E+01
     -9.554  0.6033E+01  0.2762E+01
     -9.482  0.1013E+02  0.3489E+01
     -9.409  0.1387E+02  0.4486E+01
     -9.337  0.1542E+02  0.5594E+01
     -9.264  0.1384E+02  0.6588E+01
     -9.192  0.9980E+01  0.7305E+01
     -9.119  0.5748E+01  0.7717E+01
     -9.047  0.2634E+01  0.7906E+01
     -8.975  0.9576E+00  0.7975E+01
     -8.902  0.2755E+00  0.7995E+01
     -8.830  0.6266E-01  0.7999E+01
     -8.757  0.1125E-01  0.8000E+01
     -8.685  0.1594E-02  0.8000E+01
     -8.612  0.1781E-03  0.8000E+01
     -8.540  0.1569E-04  0.8000E+01
     -8.467  0.1088E-05  0.8000E+01
     -8.395  0.5935E-07  0.8000E+01
     -8.323  0.2545E-08  0.8000E+01
     -8.250  0.8572E-10  0.8000E+01
     -8.178  0.2265E-11  0.8000E+01
     -8.105  0.4669E-13  0.8000E+01
     -8.033  0.3116E-15  0.8000E+01
     -7.960  0.0000E+00  0.8000E+01
     -7.888  0.0000E+00  0.8000E+01
     -7.815  0.0000E+00  0.8000E+01
     -7.743  0.0000E+00  0.8000E+01
     -7.671  0.0000E+00  0.8000E+01
     -7.598  0.0000E+00  0.8000E+01
     -7.526  0.0000E+00  0.8000E+01
     -7.453  0.0000E+00  0.8000E+01
     -7.381  0.0000E+00  0.8000E+01
     -7.308  0.0000E+00  0.8000E+01
     -7.236  0.0000E+00  0.8000E+01
     -7.163  0.0000E+00  0.8000E+01
     -7.091  0.0000E+00  0.8000E+01
     -7.019  0.0000E+00  0.8000E+01
     -6.946  0.0000E+00  0.8000E+01
     -6.874  0.0000E+00  0.8000E+01
     -6.801  0.0000E+00  0.8000E+01
     -6.729  0.0000E+00  0.8000E+01
     -6.656  0.0000E+00  0.8000E+01
     -6.584  0.0000E+00  0.8000E+01
     -6.511  0.0000E+00  0.8000E+01
     -6.439  0.0000E+00  0.8000E+01
     -6.367  0.0000E+00  0.8000E+01
     -6.294  0.0000E+00  0.8000E+01
     -6.222  0.0000E+00  0.8000E+01
     -6.149  0.0000E+00  0.8000E+01
     -6.077  0.0000E+00  0.8000E+01
     -6.004  0.0000E+00  0.8000E+01
     -5.932  0.0000E+00  0.8000E+01
     -5.859  0.0000E+00  0.8000E+01
     -5.787  0.0000E+00  0.8000E+01
     -5.715  0.0000E+00  0.8000E+01
     -5.642  0.0000E+00  0.8000E+01
     -5.570  0.0000E+00  0.8000E+01
     -5.497  0.0000E+00  0.8000E+01
     -5.425  0.0000E+00  0.8000E+01
     -5.352  0.0000E+00  0.8000E+01
     -5.280  0.0000E+00  0.8000E+01
     -5.207  0.0000E+00  0.8000E+01
     -5.135  0.0000E+00  0.8000E+01
     -5.063  0.0000E+00  0.8000E+01
     -4.990  0.0000E+00  0.8000E+01
     -4.918  0.0000E+00  0.8000E+01
     -4.845  0.0000E+00  0.8000E+01
     -4.773  0.0000E+00  0.8000E+01
     -4.700  0.0000E+00  0.8000E+01
     -4.628  0.0000E+00  0.8000E+01
     -4.555  0.0000E+00  0.8000E+01
     -4.483  0.0000E+00  0.8000E+01
     -4.411  0.0000E+00  0.8000E+01
     -4.338  0.0000E+00  0.8000E+01
     -4.266  0.0000E+00  0.8000E+01
     -4.193  0.0000E+00  0.8000E+01
     -4.121  0.0000E+00  0.8000E+01
     -4.048  0.0000E+00  0.8000E+01
     -3.976  0.0000E+00  0.8000E+01
     -3.903  0.0000E+00  0.8000E+01
     -3.831  0.0000E+00  0.8000E+01
     -3.759  0.0000E+00  0.8000E+01
     -3.686  0.0000E+00  0.8000E+01
     -3.614  0.0000E+00  0.8000E+01
     -3.541  0.0000E+00  0.8000E+01
     -3.469  0.0000E+00  0.8000E+01
     -3.396  0.0000E+00  0.8000E+01
     -3.324  0.0000E+00  0.8000E+01
     -3.251  0.0000E+00  0.8000E+01
     -3.179  0.0000E+00  0.8000E+01
     -3.107  0.0000E+00  0.8000E+01
     -3.034  0.0000E+00  0.8000E+01
     -2.962  0.0000E+00  0.8000E+01
     -2.889  0.0000E+00  0.8000E+01
     -2.817  0.0000E+00  0.8000E+01
     -2.744  0.0000E+00  0.8000E+01
     -2.672  0.0000E+00  0.8000E+01
     -2.599  0.0000E+00  0.8000E+01
     -2.527  0.0000E+00  0.8000E+01
     -2.455  0.0000E+00  0.8000E+01
     -2.382  0.0000E+00  0.8000E+01
     -2.310  0.0000E+00  0.8000E+01
     -2.237  0.0000E+00  0.8000E+01
     -2.165  0.0000E+00  0.8000E+01
     -2.092  0.0000E+00  0.8000E+01
     -2.020  0.0000E+00  0.8000E+01
     -1.947  0.0000E+00  0.8000E+01
     -1.875  0.0000E+00  0.8000E+01
     -1.803  0.0000E+00  0.8000E+01
     -1.730  0.0000E+00  0.8000E+01
     -1.658  0.0000E+00  0.8000E+01
     -1.585  0.1558E-15  0.8000E+01
     -1.513  0.1396E-13  0.8000E+01
     -1.440  0.7211E-12  0.8000E+01
     -1.368  0.2883E-10  0.8000E+01
     -1.295  0.8996E-09  0.8000E+01
     -1.223  0.2192E-07  0.8000E+01
     -1.151  0.4173E-06  0.8000E+01
     -1.078  0.6209E-05  0.8000E+01
     -1.006  0.7229E-04  0.8000E+01
     -0.933  0.6589E-03  0.8000E+01
     -0.861  0.4707E-02  0.8000E+01
     -0.788  0.2637E-01  0.8002E+01
     -0.716  0.1160E+00  0.8011E+01
     -0.643  0.4007E+00  0.8039E+01
     -0.571  0.1088E+01  0.8117E+01
     -0.499  0.2325E+01  0.8284E+01
     -0.426  0.3908E+01  0.8564E+01
     -0.354  0.5168E+01  0.8935E+01
     -0.281  0.5377E+01  0.9321E+01
     -0.209  0.4397E+01  0.9637E+01
     -0.136  0.2825E+01  0.9841E+01
     -0.064  0.1425E+01  0.9943E+01
      0.009  0.5682E+00  0.9984E+01
      0.081  0.2029E+00  0.9999E+01
      0.153  0.1740E+00  0.1001E+02
      0.226  0.4927E+00  0.1005E+02
      0.298  0.1433E+01  0.1015E+02
      0.371  0.3426E+01  0.1040E+02
      0.443  0.6686E+01  0.1087E+02
      0.516  0.1070E+02  0.1164E+02
      0.588  0.1408E+02  0.1265E+02
      0.661  0.1516E+02  0.1374E+02
      0.733  0.1327E+02  0.1470E+02
      0.805  0.9368E+01  0.1537E+02
      0.878  0.5283E+01  0.1575E+02
      0.950  0.2363E+01  0.1592E+02
      1.023  0.8339E+00  0.1598E+02
      1.095  0.2311E+00  0.1600E+02
      1.168  0.5011E-01  0.1600E+02
      1.240  0.8489E-02  0.1600E+02
      1.313  0.1121E-02  0.1600E+02
      1.385  0.1153E-03  0.1600E+02
      1.457  0.9224E-05  0.1600E+02
      1.530  0.5736E-06  0.1600E+02
      1.602  0.2771E-07  0.1600E+02
      1.675  0.1039E-08  0.1600E+02
      1.747  0.3024E-10  0.1600E+02
      1.820  0.6828E-12  0.1600E+02
      1.892  0.1149E-13  0.1600E+02
      1.965  0.0000E+00  0.1600E+02
      2.037  0.0000E+00  0.1600E+02
      2.109  0.0000E+00  0.1600E+02
      2.182  0.0000E+00  0.1600E+02
      2.254  0.0000E+00  0.1600E+02
      2.327  0.0000E+00  0.1600E+02
      2.399  0.0000E+00  0.1600E+02
      2.472  0.0000E+00  0.1600E+02
      2.544  0.0000E+00  0.1600E+02
      2.617  0.0000E+00  0.1600E+02
      2.689  0.0000E+00  0.1600E+02
      2.67154616    -19.06196206  301     -8.41240154      1.00000000
    -19.062  0.0000E+00  0.0000E+00
    -18.990  0.0000E+00  0.0000E+00
    -18.917  0.0000E+00  0.0000E+00
    -18.845  0.0000E+00  0.0000E+00
    -18.772  0.0000E+00  0.0000E+00
    -18.700  0.0000E+00  0.0000E+00
    -18.627  0.0000E+00  0.0000E+00
    -18.555  0.0000E+00  0.0000E+00
    -18.482  0.0000E+00  0.0000E+00
    -18.410  0.0000E+00  0.0000E+00
    -18.338  0.0000E+00  0.0000E+00
    -18.265  0.0000E+00  0.0000E+00
    -18.193  0.1839E-14  0.1332E-15
    -18.120  0.9862E-13  0.7278E-14
    -18.048  0.4259E-11  0.3158E-12
    -17.975  0.1419E-09  0.1059E-10
    -17.903  0.3647E-08  0.2748E-09
    -17.830  0.7239E-07  0.5519E-08
    -17.758  0.1110E-05  0.8590E-07
    -17.686  0.1314E-04  0.1038E-05
    -17.613  0.1202E-03  0.9742E-05
    -17.541  0.8492E-03  0.7127E-04
    -17.468  0.4639E-02  0.4074E-03
    -17.396  0.1959E-01  0.1827E-02
    -17.323  0.6398E-01  0.6462E-02
    -17.251  0.1616E+00  0.1817E-01
    -17.178  0.3156E+00  0.4103E-01
    -17.106  0.4768E+00  0.7557E-01
    -17.034  0.5573E+00  0.1159E+00
    -16.961  0.5038E+00  0.1524E+00
    -16.889  0.3524E+00  0.1780E+00
    -16.816  0.1906E+00  0.1918E+00
    -16.744  0.7976E-01  0.1976E+00
    -16.671  0.2581E-01  0.1994E+00
    -16.599  0.6458E-02  0.1999E+00
    -16.526  0.1249E-02  0.2000E+00
    -16.454  0.1868E-03  0.2000E+00
    -16.381  0.2158E-04  0.2000E+00
    -16.309  0.1927E-05  0.2000E+00
    -16.237  0.1329E-06  0.2000E+00
    -16.164  0.7076E-08  0.2000E+00
    -16.092  0.2910E-09  0.2000E+00
    -16.019  0.9234E-11  0.2000E+00
    -15.947  0.2262E-12  0.2000E+00
    -15.874  0.4291E-14  0.2000E+00
    -15.802  0.0000E+00  0.2000E+00
    -15.729  0.0000E+00  0.2000E+00
    -15.657  0.0000E+00  0.2000E+00
    -15.585  0.0000E+00  0.2000E+00
    -15.512  0.0000E+00  0.2000E+00
    -15.440  0.0000E+00  0.2000E+00
    -15.367  0.0000E+00  0.2000E+00
    -15.295  0.0000E+00  0.2000E+00
    -15.222  0.0000E+00  0.2000E+00
    -15.150  0.0000E+00  0.2000E+00
    -15.077  0.0000E+00  0.2000E+00
    -15.005  0.0000E+00  0.2000E+00
    -14.933  0.0000E+00  0.2000E+00
    -14.860  0.0000E+00  0.2000E+00
    -14.788  0.0000E+00  0.2000E+00
    -14.715  0.0000E+00  0.2000E+00
    -14.643  0.0000E+00  0.2000E+00
    -14.570  0.0000E+00  0.2000E+00
    -14.498  0.0000E+00  0.2000E+00
    -14.425  0.0000E+00  0.2000E+00
    -14.353  0.0000E+00  0.2000E+00
    -14.281  0.0000E+00  0.2000E+00
    -14.208  0.0000E+00  0.2000E+00
    -14.136  0.0000E+00  0.2000E+00
    -14.063  0.0000E+00  0.2000E+00
    -13.991  0.0000E+00  0.2000E+00
    -13.918  0.0000E+00  0.2000E+00
    -13.846  0.0000E+00  0.2000E+00
    -13.773  0.0000E+00  0.2000E+00
    -13.701  0.0000E+00  0.2000E+00
    -13.629  0.0000E+00  0.2000E+00
    -13.556  0.0000E+00  0.2000E+00
    -13.484  0.0000E+00  0.2000E+00
    -13.411  0.0000E+00  0.2000E+00
    -13.339  0.0000E+00  0.2000E+00
    -13.266  0.0000E+00  0.2000E+00
    -13.194  0.0000E+00  0.2000E+00
    -13.121  0.0000E+00  0.2000E+00
    -13.049  0.0000E+00  0.2000E+00
    -12.977  0.0000E+00  0.2000E+00
    -12.904  0.0000E+00  0.2000E+00
    -12.832  0.0000E+00  0.2000E+00
    -12.759  0.0000E+00  0.2000E+00
    -12.687  0.0000E+00  0.2000E+00
    -12.614  0.0000E+00  0.2000E+00
    -12.542  0.0000E+00  0.2000E+00
    -12.469  0.0000E+00  0.2000E+00
    -12.397  0.0000E+00  0.2000E+00
    -12.325  0.0000E+00  0.2000E+00
    -12.252  0.0000E+00  0.2000E+00
    -12.180  0.0000E+00  0.2000E+00
    -12.107  0.0000E+00  0.2000E+00
    -12.035  0.0000E+00  0.2000E+00
    -11.962  0.0000E+00  0.2000E+00
    -11.890  0.0000E+00  0.2000E+00
    -11.817  0.0000E+00  0.2000E+00
    -11.745  0.0000E+00  0.2000E+00
    -11.673  0.0000E+00  0.2000E+00
    -11.600  0.0000E+00  0.2000E+00
    -11.528  0.0000E+00  0.2000E+00
    -11.455  0.0000E+00  0.2000E+00
    -11.383  0.0000E+00  0.2000E+00
    -11.310  0.0000E+00  0.2000E+00
    -11.238  0.0000E+00  0.2000E+00
    -11.165  0.0000E+00  0.2000E+00
    -11.093  0.0000E+00  0.2000E+00
    -11.021  0.0000E+00  0.2000E+00
    -10.948  0.0000E+00  0.2000E+00
    -10.876  0.0000E+00  0.2000E+00
    -10.803  0.0000E+00  0.2000E+00
    -10.731  0.0000E+00  0.2000E+00
    -10.658  0.0000E+00  0.2000E+00
    -10.586  0.3065E-15  0.2000E+00
    -10.513  0.1778E-13  0.2000E+00
    -10.441  0.8814E-12  0.2000E+00
    -10.369  0.3359E-10  0.2000E+00
    -10.296  0.9916E-09  0.2000E+00
    -10.224  0.2269E-07  0.2000E+00
    -10.151  0.4030E-06  0.2000E+00
    -10.079  0.5559E-05  0.2000E+00
    -10.006  0.5963E-04  0.2000E+00
     -9.934  0.4980E-03  0.2000E+00
     -9.861  0.3242E-02  0.2003E+00
     -9.789  0.1647E-01  0.2015E+00
     -9.717  0.6538E-01  0.2062E+00
     -9.644  0.2029E+00  0.2209E+00
     -9.572  0.4931E+00  0.2566E+00
     -9.499  0.9380E+00  0.3246E+00
     -9.427  0.1398E+01  0.4258E+00
     -9.354  0.1632E+01  0.5440E+00
     -9.282  0.1491E+01  0.6521E+00
     -9.209  0.1067E+01  0.7293E+00
     -9.137  0.5965E+00  0.7725E+00
     -9.065  0.2607E+00  0.7914E+00
     -8.992  0.8891E-01  0.7979E+00
     -8.920  0.2364E-01  0.7996E+00
     -8.847  0.4897E-02  0.7999E+00
     -8.775  0.7891E-03  0.8000E+00
     -8.702  0.9885E-04  0.8000E+00
     -8.630  0.9616E-05  0.8000E+00
     -8.557  0.7258E-06  0.8000E+00
     -8.485  0.4247E-07  0.8000E+00
     -8.413  0.1926E-08  0.8000E+00
     -8.340  0.6761E-10  0.8000E+00
     -8.268  0.1837E-11  0.8000E+00
     -8.195  0.3885E-13  0.8000E+00
     -8.123  0.6130E-15  0.8000E+00
     -8.050  0.0000E+00  0.8000E+00
     -7.978  0.0000E+00  0.8000E+00
     -7.905  0.0000E+00  0.8000E+00
     -7.833  0.0000E+00  0.8000E+00
     -7.761  0.0000E+00  0.8000E+00
     -7.688  0.0000E+00  0.8000E+00
     -7.616  0.0000E+00  0.8000E+00
     -7.543  0.0000E+00  0.8000E+00
     -7.471  0.0000E+00  0.8000E+00
     -7.398  0.0000E+00  0.8000E+00
     -7.326  0.0000E+00  0.8000E+00
     -7.253  0.0000E+00  0.8000E+00
     -7.181  0.0000E+00  0.8000E+00
     -7.109  0.0000E+00  0.8000E+00
     -7.036  0.0000E+00  0.8000E+00
     -6.964  0.0000E+00  0.8000E+00
     -6.891  0.0000E+00  0.8000E+00
     -6.819  0.0000E+00  0.8000E+00
     -6.746  0.0000E+00  0.8000E+00
     -6.674  0.0000E+00  0.8000E+00
     -6.601  0.0000E+00  0.8000E+00
     -6.529  0.0000E+00  0.8000E+00
     -6.457  0.0000E+00  0.8000E+00
     -6.384  0.0000E+00  0.8000E+00
     -6.312  0.0000E+00  0.8000E+00
     -6.239  0.0000E+00  0.8000E+00
     -6.167  0.0000E+00  0.8000E+00
     -6.094  0.0000E+00  0.8000E+00
     -6.022  0.0000E+00  0.8000E+00
     -5.949  0.0000E+00  0.8000E+00
     -5.877  0.0000E+00  0.8000E+00
     -5.805  0.0000E+00  0.8000E+00
     -5.732  0.0000E+00  0.8000E+00
     -5.660  0.0000E+00  0.8000E+00
     -5.587  0.0000E+00  0.8000E+00
     -5.515  0.0000E+00  0.8000E+00
     -5.442  0.0000E+00  0.8000E+00
     -5.370  0.0000E+00  0.8000E+00
     -5.297  0.0000E+00  0.8000E+00
     -5.225  0.0000E+00  0.8000E+00
     -5.153  0.0000E+00  0.8000E+00
     -5.080  0.0000E+00  0.8000E+00
     -5.008  0.0000E+00  0.8000E+00
     -4.935  0.0000E+00  0.8000E+00
     -4.863  0.0000E+00  0.8000E+00
     -4.790  0.0000E+00  0.8000E+00
     -4.718  0.0000E+00  0.8000E+00
     -4.645  0.0000E+00  0.8000E+00
     -4.573  0.0000E+00  0.8000E+00
     -4.501  0.0000E+00  0.8000E+00
     -4.428  0.0000E+00  0.8000E+00
     -4.356  0.0000E+00  0.8000E+00
     -4.283  0.0000E+00  0.8000E+00
     -4.211  0.0000E+00  0.8000E+00
     -4.138  0.0000E+00  0.8000E+00
     -4.066  0.0000E+00  0.8000E+00
     -3.993  0.0000E+00  0.8000E+00
     -3.921  0.0000E+00  0.8000E+00
     -3.849  0.0000E+00  0.8000E+00
     -3.776  0.0000E+00  0.8000E+00
     -3.704  0.0000E+00  0.8000E+00
     -3.631  0.0000E+00  0.8000E+00
     -3.559  0.0000E+00  0.8000E+00
     -3.486  0.0000E+00  0.8000E+00
     -3.414  0.0000E+00  0.8000E+00
     -3.341  0.0000E+00  0.8000E+00
     -3.269  0.0000E+00  0.8000E+00
     -3.197  0.0000E+00  0.8000E+00
     -3.124  0.0000E+00  0.8000E+00
     -3.052  0.0000E+00  0.8000E+00
     -2.979  0.0000E+00  0.8000E+00
     -2.907  0.0000E+00  0.8000E+00
     -2.834  0.0000E+00  0.8000E+00
     -2.762  0.0000E+00  0.8000E+00
     -2.689  0.0000E+00  0.8000E+00
     -2.617  0.0000E+00  0.8000E+00
     -2.544  0.0000E+00  0.8000E+00
     -2.472  0.0000E+00  0.8000E+00
     -2.400  0.0000E+00  0.8000E+00
     -2.327  0.0000E+00  0.8000E+00
     -2.255  0.0000E+00  0.8000E+00
     -2.182  0.0000E+00  0.8000E+00
     -2.110  0.0000E+00  0.8000E+00
     -2.037  0.0000E+00  0.8000E+00
     -1.965  0.0000E+00  0.8000E+00
     -1.892  0.0000E+00  0.8000E+00
     -1.820  0.0000E+00  0.8000E+00
     -1.748  0.0000E+00  0.8000E+00
     -1.675  0.0000E+00  0.8000E+00
     -1.603  0.0000E+00  0.8000E+00
     -1.530  0.0000E+00  0.8000E+00
     -1.458  0.2682E-15  0.8000E+00
     -1.385  0.1536E-13  0.8000E+00
     -1.313  0.7513E-12  0.8000E+00
     -1.240  0.2825E-10  0.8000E+00
     -1.168  0.8199E-09  0.8000E+00
     -1.096  0.1837E-07  0.8000E+00
     -1.023  0.3178E-06  0.8000E+00
     -0.951  0.4247E-05  0.8000E+00
     -0.878  0.4384E-04  0.8000E+00
     -0.806  0.3497E-03  0.8000E+00
     -0.733  0.2156E-02  0.8002E+00
     -0.661  0.1027E-01  0.8009E+00
     -0.588  0.3786E-01  0.8037E+00
     -0.516  0.1079E+00  0.8115E+00
     -0.444  0.2378E+00  0.8287E+00
     -0.371  0.4054E+00  0.8581E+00
     -0.299  0.5346E+00  0.8968E+00
     -0.226  0.5454E+00  0.9363E+00
     -0.154  0.4305E+00  0.9675E+00
     -0.081  0.2629E+00  0.9866E+00
     -0.009  0.1243E+00  0.9956E+00
      0.064  0.4620E-01  0.9989E+00
      0.136  0.1768E-01  0.1000E+01
      0.208  0.2457E-01  0.1002E+01
      0.281  0.7740E-01  0.1008E+01
      0.353  0.2164E+00  0.1023E+01
      0.426  0.4874E+00  0.1059E+01
      0.498  0.8850E+00  0.1123E+01
      0.571  0.1299E+01  0.1217E+01
      0.643  0.1539E+01  0.1328E+01
      0.716  0.1467E+01  0.1435E+01
      0.788  0.1118E+01  0.1516E+01
      0.860  0.6764E+00  0.1565E+01
      0.933  0.3227E+00  0.1588E+01
      1.005  0.1208E+00  0.1597E+01
      1.078  0.3531E-01  0.1599E+01
      1.150  0.8037E-02  0.1600E+01
      1.223  0.1421E-02  0.1600E+01
      1.295  0.1949E-03  0.1600E+01
      1.368  0.2071E-04  0.1600E+01
      1.440  0.1702E-05  0.1600E+01
      1.512  0.1083E-06  0.1600E+01
      1.585  0.5322E-08  0.1600E+01
      1.657  0.2021E-09  0.1600E+01
      1.730  0.5929E-11  0.1600E+01
      1.802  0.1343E-12  0.1600E+01
      1.875  0.2299E-14  0.1600E+01
      1.947  0.0000E+00  0.1600E+01
      2.020  0.0000E+00  0.1600E+01
      2.092  0.0000E+00  0.1600E+01
      2.164  0.0000E+00  0.1600E+01
      2.237  0.0000E+00  0.1600E+01
      2.309  0.0000E+00  0.1600E+01
      2.382  0.0000E+00  0.1600E+01
      2.454  0.0000E+00  0.1600E+01
      2.527  0.0000E+00  0.1600E+01
      2.599  0.0000E+00  0.1600E+01
      2.672  0.0000E+00  0.1600E+01
