       N       E                     dE             d eps       ncg     rms          rms(c)
DAV:   1     0.188551654438E+02    0.18855E+02   -0.19927E+03    96   0.428E+02
DAV:   2    -0.216167423393E+02   -0.40472E+02   -0.40472E+02    72   0.112E+02
DAV:   3    -0.269499917792E+02   -0.53332E+01   -0.53332E+01    64   0.465E+01
DAV:   4    -0.271948411437E+02   -0.24485E+00   -0.24485E+00   128   0.116E+01
DAV:   5    -0.271949290498E+02   -0.87906E-04   -0.87907E-04    96   0.254E-01    0.829E+00
RMM:   6    -0.245705220166E+02    0.26244E+01   -0.47677E+00    64   0.132E+01    0.411E+00
RMM:   7    -0.241272657264E+02    0.44326E+00   -0.98510E-01    64   0.570E+00    0.221E+00
RMM:   8    -0.239852131433E+02    0.14205E+00   -0.16315E-01    64   0.284E+00    0.232E-01
RMM:   9    -0.239797203480E+02    0.54928E-02   -0.10616E-02    64   0.679E-01    0.190E-01
RMM:  10    -0.239731225139E+02    0.65978E-02   -0.24635E-02    64   0.847E-01    0.267E-01
RMM:  11    -0.239741977832E+02   -0.10753E-02   -0.10247E-02    64   0.617E-01    0.110E-01
RMM:  12    -0.239831092280E+02   -0.89114E-02   -0.24727E-03    64   0.302E-01    0.115E-01
RMM:  13    -0.239837477142E+02   -0.63849E-03   -0.11636E-03    64   0.185E-01    0.364E-02
RMM:  14    -0.239866822051E+02   -0.29345E-02   -0.11177E-03    64   0.201E-01    0.272E-02
RMM:  15    -0.239868681827E+02   -0.18598E-03   -0.73848E-05    64   0.478E-02    0.276E-02
RMM:  16    -0.239871129108E+02   -0.24473E-03   -0.29191E-04    64   0.967E-02    0.138E-02
RMM:  17    -0.239871342101E+02   -0.21299E-04   -0.17987E-05    64   0.261E-02    0.426E-03
RMM:  18    -0.239871542210E+02   -0.20011E-04   -0.13058E-05    64   0.220E-02    0.357E-03
RMM:  19    -0.239871561784E+02   -0.19573E-05   -0.10288E-06    48   0.656E-03    0.127E-03
RMM:  20    -0.239871582348E+02   -0.20564E-05   -0.64879E-07    48   0.583E-03    0.154E-04
RMM:  21    -0.239871584519E+02   -0.21705E-06   -0.18063E-07    48   0.363E-03
    1 T=     1. E= -.23986434E+02 F= -.23987158E+02 E0= -.23987158E+02  EK= 0.72427E-03 SP= 0.00E+00 SK= 0.00E+00
       N       E                     dE             d eps       ncg     rms          rms(c)
DAV:   1    -0.239928248676E+02   -0.56666E-02   -0.65691E-03    96   0.712E-01    0.456E-02
RMM:   2    -0.239927586319E+02    0.66236E-04   -0.20403E-04    64   0.868E-02    0.177E-02
RMM:   3    -0.239927587886E+02   -0.15670E-06   -0.77924E-05    64   0.536E-02    0.833E-03
RMM:   4    -0.239927598650E+02   -0.10764E-05   -0.74739E-06    64   0.182E-02    0.364E-03
RMM:   5    -0.239927595048E+02    0.36026E-06   -0.93498E-07    48   0.589E-03
    2 T=    12. E= -.23986526E+02 F= -.23992760E+02 E0= -.23992760E+02  EK= 0.62334E-02 SP= 0.00E+00 SK= 0.00E+00
       N       E                     dE             d eps       ncg     rms          rms(c)
DAV:   1    -0.240024758136E+02   -0.97159E-02   -0.44262E-03    96   0.652E-01    0.874E-03
RMM:   2    -0.240024805308E+02   -0.47173E-05   -0.59198E-05    64   0.646E-02    0.125E-03
RMM:   3    -0.240024817023E+02   -0.11715E-05   -0.29696E-06    52   0.156E-02    0.146E-03
RMM:   4    -0.240024822807E+02   -0.57837E-06   -0.27140E-07    48   0.563E-03
    3 T=    31. E= -.23986692E+02 F= -.24002482E+02 E0= -.24002482E+02  EK= 0.15791E-01 SP= 0.00E+00 SK= 0.00E+00
       N       E                     dE             d eps       ncg     rms          rms(c)
DAV:   1    -0.240136847137E+02   -0.11203E-01   -0.11901E-03    96   0.178E-01    0.795E-03
RMM:   2    -0.240136852756E+02   -0.56197E-06   -0.10666E-05    64   0.269E-02    0.376E-03
RMM:   3    -0.240136872752E+02   -0.19996E-05   -0.48769E-06    60   0.137E-02    0.126E-03
RMM:   4    -0.240136877084E+02   -0.43315E-06   -0.19886E-07    48   0.357E-03
    4 T=    52. E= -.23986900E+02 F= -.24013688E+02 E0= -.24013688E+02  EK= 0.26788E-01 SP= 0.00E+00 SK= 0.00E+00
       N       E                     dE             d eps       ncg     rms          rms(c)
DAV:   1    -0.240231956523E+02   -0.95084E-02   -0.16833E-03    64   0.208E-01    0.412E-03
RMM:   2    -0.240231977483E+02   -0.20961E-05   -0.87967E-06    64   0.264E-02    0.196E-03
RMM:   3    -0.240231997141E+02   -0.19657E-05   -0.13533E-06    48   0.916E-03    0.532E-04
RMM:   4    -0.240232005936E+02   -0.87953E-06   -0.21541E-07    48   0.443E-03
    5 T=    70. E= -.23987091E+02 F= -.24023201E+02 E0= -.24023201E+02  EK= 0.36110E-01 SP= 0.00E+00 SK= 0.00E+00
       N       E                     dE             d eps       ncg     rms          rms(c)
DAV:   1    -0.240281529174E+02   -0.49532E-02   -0.20326E-03    64   0.234E-01    0.461E-03
RMM:   2    -0.240281559831E+02   -0.30657E-05   -0.14389E-05    64   0.382E-02    0.230E-03
RMM:   3    -0.240281579631E+02   -0.19801E-05   -0.11839E-06    48   0.866E-03    0.697E-04
RMM:   4    -0.240281592781E+02   -0.13150E-05   -0.39246E-07    48   0.538E-03    0.404E-04
RMM:   5    -0.240281606329E+02   -0.13548E-05   -0.90924E-08    48   0.251E-03    0.164E-04
RMM:   6    -0.240281614584E+02   -0.82554E-06   -0.12320E-08    34   0.158E-03
    6 T=    79. E= -.23987211E+02 F= -.24028161E+02 E0= -.24028161E+02  EK= 0.40950E-01 SP= 0.00E+00 SK= 0.00E+00
       N       E                     dE             d eps       ncg     rms          rms(c)
DAV:   1    -0.240268660345E+02    0.12946E-02   -0.20881E-03    72   0.250E-01    0.328E-03
RMM:   2    -0.240268726737E+02   -0.66392E-05   -0.20548E-05    64   0.470E-02    0.183E-03
RMM:   3    -0.240268755437E+02   -0.28699E-05   -0.50265E-07    48   0.717E-03    0.154E-03
RMM:   4    -0.240268810199E+02   -0.54763E-05   -0.17372E-07    48   0.353E-03    0.536E-04
RMM:   5    -0.240268858232E+02   -0.48032E-05   -0.10334E-07    48   0.250E-03    0.289E-04
RMM:   6    -0.240268915013E+02   -0.56782E-05   -0.13115E-07    47   0.223E-03    0.294E-04
RMM:   7    -0.240268919615E+02   -0.46022E-06    0.00000E+00    32   0.120E-03
    7 T=    77. E= -.23987209E+02 F= -.24026892E+02 E0= -.24026892E+02  EK= 0.39682E-01 SP= 0.00E+00 SK= 0.00E+00
       N       E                     dE             d eps       ncg     rms          rms(c)
DAV:   1    -0.240195944951E+02    0.72970E-02   -0.16489E-03    64   0.241E-01    0.389E-03
RMM:   2    -0.240195968377E+02   -0.23427E-05   -0.20160E-05    64   0.550E-02    0.235E-03
RMM:   3    -0.240195971486E+02   -0.31090E-06   -0.37800E-07    48   0.550E-03    0.173E-03
RMM:   4    -0.240195978674E+02   -0.71879E-06   -0.45918E-07    48   0.503E-03
    8 T=    63. E= -.23987077E+02 F= -.24019598E+02 E0= -.24019598E+02  EK= 0.32521E-01 SP= 0.00E+00 SK= 0.00E+00
       N       E                     dE             d eps       ncg     rms          rms(c)
DAV:   1    -0.240085130334E+02    0.11084E-01   -0.12759E-03    64   0.227E-01    0.295E-03
RMM:   2    -0.240085153313E+02   -0.22980E-05   -0.21052E-05    64   0.584E-02    0.356E-03
RMM:   3    -0.240085152110E+02    0.12036E-06   -0.35907E-07    48   0.527E-03    0.309E-03
RMM:   4    -0.240085159473E+02   -0.73634E-06   -0.12771E-07    48   0.388E-03
    9 T=    42. E= -.23986848E+02 F= -.24008516E+02 E0= -.24008516E+02  EK= 0.21668E-01 SP= 0.00E+00 SK= 0.00E+00
       N       E                     dE             d eps       ncg     rms          rms(c)
DAV:   1    -0.239973469186E+02    0.11168E-01   -0.72925E-04    96   0.189E-01    0.550E-03
RMM:   2    -0.239973482163E+02   -0.12977E-05   -0.15904E-05    64   0.478E-02    0.152E-03
RMM:   3    -0.239973484772E+02   -0.26090E-06   -0.48771E-07    48   0.641E-03    0.771E-04
RMM:   4    -0.239973486320E+02   -0.15485E-06   -0.15279E-07    48   0.396E-03
   10 T=    21. E= -.23986601E+02 F= -.23997349E+02 E0= -.23997349E+02  EK= 0.10747E-01 SP= 0.00E+00 SK= 0.00E+00
