 vasp.5.4.4.18Apr17-6-g9f103f2a35 (build Nov 25 2021 15:25:00) complex          
  
 executed on             LinuxIFC date 2022.02.21  10:17:15
 running on   16 total cores
 distrk:  each k-point on   16 cores,    1 groups
 distr:  one band on NCORES_PER_BAND=   4 cores,    4 groups


--------------------------------------------------------------------------------------------------------


 INCAR:
 POTCAR:    PAW_PBE H 15Jun2001                   
 POTCAR:    PAW_PBE C 08Apr2002                   
 POTCAR:    PAW_PBE H 15Jun2001                   
   VRHFIN =H: ultrasoft test                                                    
   LEXCH  = PE                                                                  
   EATOM  =    12.4884 eV,    0.9179 Ry                                         
                                                                                
   TITEL  = PAW_PBE H 15Jun2001                                                 
   LULTRA =        F    use ultrasoft PP ?                                      
   IUNSCR =        0    unscreen: 0-lin 1-nonlin 2-no                           
   RPACOR =    0.000    partial core radius                                     
   POMASS =    1.000; ZVAL   =    1.000    mass and valenz                      
   RCORE  =    1.100    outmost cutoff radius                                   
   RWIGS  =    0.700; RWIGS  =    0.370    wigner-seitz radius (au A)           
   ENMAX  =  250.000; ENMIN  =  200.000 eV                                      
   RCLOC  =    0.701    cutoff for local pot                                    
   LCOR   =        T    correct aug charges                                     
   LPAW   =        T    paw PP                                                  
   EAUG   =  400.000                                                            
   RMAX   =    1.123    core radius for proj-oper                               
   RAUG   =    1.200    factor for augmentation sphere                          
   RDEP   =    1.112    radius for radial grids                                 
   RDEPT  =    0.926    core radius for aug-charge                              
                                                                                
   Atomic configuration                                                         
    2 entries                                                                   
     n  l   j            E        occ.                                          
     1  0  0.50        -6.4927   1.0000                                         
     2  1  0.50        -3.4015   0.0000                                         
   Description                                                                  
     l       E           TYP  RCUT    TYP  RCUT                                 
     0     -6.4927494     23  1.100                                             
     0      6.8029130     23  1.100                                             
     1     -4.0817478     23  1.100                                             
  local pseudopotential read in
  atomic valenz-charges read in
  non local Contribution for L=           0  read in
    real space projection operators read in
  non local Contribution for L=           0  read in
    real space projection operators read in
  non local Contribution for L=           1  read in
    real space projection operators read in
    PAW grid and wavefunctions read in
 
   number of l-projection  operators is LMAX  =           3
   number of lm-projection operators is LMMAX =           5
 
 POTCAR:    PAW_PBE C 08Apr2002                   
   VRHFIN =C: s2p2                                                              
   LEXCH  = PE                                                                  
   EATOM  =   147.1560 eV,   10.8157 Ry                                         
                                                                                
   TITEL  = PAW_PBE C 08Apr2002                                                 
   LULTRA =        F    use ultrasoft PP ?                                      
   IUNSCR =        1    unscreen: 0-lin 1-nonlin 2-no                           
   RPACOR =    1.200    partial core radius                                     
   POMASS =   12.011; ZVAL   =    4.000    mass and valenz                      
   RCORE  =    1.500    outmost cutoff radius                                   
   RWIGS  =    1.630; RWIGS  =    0.863    wigner-seitz radius (au A)           
   ENMAX  =  400.000; ENMIN  =  300.000 eV                                      
   ICORE  =        2    local potential                                         
   LCOR   =        T    correct aug charges                                     
   LPAW   =        T    paw PP                                                  
   EAUG   =  644.873                                                            
   DEXC   =    0.000                                                            
   RMAX   =    1.529    core radius for proj-oper                               
   RAUG   =    1.300    factor for augmentation sphere                          
   RDEP   =    1.501    radius for radial grids                                 
   RDEPT  =    1.300    core radius for aug-charge                              
                                                                                
   Atomic configuration                                                         
    4 entries                                                                   
     n  l   j            E        occ.                                          
     1  0  0.50      -273.3789   2.0000                                         
     2  0  0.50       -13.7508   2.0000                                         
     2  1  0.50        -5.2854   2.0000                                         
     3  2  1.50        -5.4423   0.0000                                         
   Description                                                                  
     l       E           TYP  RCUT    TYP  RCUT                                 
     0    -13.7508458     23  1.200                                             
     0     -8.2022199     23  1.200                                             
     1     -5.2854383     23  1.500                                             
     1     34.0145650     23  1.500                                             
     2     -5.4423304      7  1.500                                             
  local pseudopotential read in
  partial core-charges read in
  partial kinetic energy density read in
  atomic valenz-charges read in
  non local Contribution for L=           0  read in
    real space projection operators read in
  non local Contribution for L=           0  read in
    real space projection operators read in
  non local Contribution for L=           1  read in
    real space projection operators read in
  non local Contribution for L=           1  read in
    real space projection operators read in
    PAW grid and wavefunctions read in
 
   number of l-projection  operators is LMAX  =           4
   number of lm-projection operators is LMMAX =           8
 
  PAW_PBE H 15Jun2001                   :
 energy of atom  1       EATOM=  -12.4884
 kinetic energy error for atom=    0.0098 (will be added to EATOM!!)
  PAW_PBE C 08Apr2002                   :
 energy of atom  2       EATOM= -147.1560
 kinetic energy error for atom=    0.0288 (will be added to EATOM!!)
 
 
 POSCAR:  H  C                                   
  positions in cartesian coordinates
  No initial velocities read in
 exchange correlation table for  LEXCH =        8
   RHO(1)=    0.500       N(1)  =     2000
   RHO(2)=  100.500       N(2)  =     4000

 VTST: version 3.2, (02/03/18)

 CHAIN: initializing optimizer
 
 OPT: Using VASP Dynamics algorithm
 CHAIN: Read ICHAIN            0
 
 POSCAR:  H  C                                   
  positions in cartesian coordinates
  No initial velocities read in
 


--------------------------------------------------------------------------------------------------------


 ion  position               nearest neighbor table
   1  0.538  0.407  0.361-   5 1.12
   2  0.395  0.480  0.438-   5 1.11
   3  0.553  0.565  0.443-   5 1.11
   4  0.528  0.416  0.539-   5 1.13
   5  0.503  0.468  0.445-   2 1.11   3 1.11   1 1.12   4 1.13
 

IMPORTANT INFORMATION: All symmetrisations will be switched off!
NOSYMM: (Re-)initialisation of all symmetry stuff for point group C_1.

 
 

Automatic generation of k-mesh.
 generate k-points for:    2    2    2
Space group operators:
 irot       det(A)        alpha          n_x          n_y          n_z        tau_x        tau_y        tau_z
    1     1.000000     0.000000     1.000000     0.000000     0.000000     0.000000     0.000000     0.000000
 
 Subroutine IBZKPT returns following result:
 ===========================================
 
 Found      4 irreducible k-points:
 
 Following reciprocal coordinates:
            Coordinates               Weight
  0.250000  0.250000  0.250000      2.000000
 -0.250000  0.250000  0.250000      2.000000
  0.250000 -0.250000  0.250000      2.000000
 -0.250000 -0.250000  0.250000      2.000000
 
 Following cartesian coordinates:
            Coordinates               Weight
  0.024504  0.024522  0.025036      2.000000
 -0.024504  0.024546  0.024216      2.000000
  0.024504 -0.024546  0.024453      2.000000
 -0.024504 -0.024522  0.023633      2.000000
 


--------------------------------------------------------------------------------------------------------




 Dimension of arrays:
   k-points           NKPTS =      4   k-points in BZ     NKDIM =      4   number of bands    NBANDS=      8
   number of dos      NEDOS =    301   number of ions     NIONS =      5
   non local maximal  LDIM  =      4   non local SUM 2l+1 LMDIM =      8
   total plane-waves  NPLWV = 343000
   max r-space proj   IRMAX =      1   max aug-charges    IRDMAX=   3989
   dimension x,y,z NGX =    70 NGY =   70 NGZ =   70
   dimension x,y,z NGXF=   140 NGYF=  140 NGZF=  140
   support grid    NGXF=   140 NGYF=  140 NGZF=  140
   ions per type =               4   1
   NGX,Y,Z   is equivalent  to a cutoff of  11.41, 11.42, 11.33 a.u.
   NGXF,Y,Z  is equivalent  to a cutoff of  22.81, 22.84, 22.65 a.u.

 SYSTEM =  unknown system                          
 POSCAR =   H  C                                   

 Startparameter for this run:
   NWRITE =      2    write-flag & timer
   PREC   = a         normal or accurate (medium, high low for compatibility)
   ISTART =      0    job   : 0-new  1-cont  2-samecut
   ICHARG =      2    charge: 1-file 2-atom 10-const
   ISPIN  =      1    spin polarized calculation?
   LNONCOLLINEAR =      F non collinear calculations
   LSORBIT =      F    spin-orbit coupling
   INIWAV =      1    electr: 0-lowe 1-rand  2-diag
   LASPH  =      F    aspherical Exc in radial PAW
   METAGGA=      F    non-selfconsistent MetaGGA calc.

 Electronic Relaxation 1
   ENCUT  =  400.0 eV  29.40 Ry    5.42 a.u.  16.64 16.62 16.76*2*pi/ulx,y,z
   ENINI  =  400.0     initial cutoff
   ENAUG  =  644.9 eV  augmentation charge cutoff
   NELM   =    120;   NELMIN=  4; NELMDL= -5     # of ELM steps 
   EDIFF  = 0.1E-05   stopping-criterion for ELM
   LREAL  =      F    real-space projection
   NLSPLINE    = F    spline interpolate recip. space projectors
   LCOMPAT=      F    compatible to vasp.4.4
   GGA_COMPAT  = T    GGA compatible to vasp.4.4-vasp.4.6
   LMAXPAW     = -100 max onsite density
   LMAXMIX     =    2 max onsite mixed and CHGCAR
   VOSKOWN=      0    Vosko Wilk Nusair interpolation
   ROPT   =    0.00000   0.00000
 Ionic relaxation
   EDIFFG = 0.1E-04   stopping-criterion for IOM
   NSW    =     10    number of steps for IOM
   NBLOCK =      1;   KBLOCK =     10    inner block; outer block 
   IBRION =      0    ionic relax: 0-MD 1-quasi-New 2-CG
   NFREE  =      0    steps in history (QN), initial steepest desc. (CG)
   ISIF   =      2    stress and relaxation
   IWAVPR =     12    prediction:  0-non 1-charg 2-wave 3-comb
   ISYM   =      0    0-nonsym 1-usesym 2-fastsym
   LCORR  =      T    Harris-Foulkes like correction to forces

   POTIM  = 0.5000    time-step for ionic-motion
   TEIN   =    0.0    initial temperature
   TEBEG  =    0.0;   TEEND  =   0.0 temperature during run
   SMASS  =  -3.00    Nose mass-parameter (am)
   estimated Nose-frequenzy (Omega)   =  0.10E-29 period in steps =****** mass=  -0.238E-26a.u.
   SCALEE = 1.0000    scale energy and forces
   NPACO  =    256;   APACO  = 16.0  distance and # of slots for P.C.
   PSTRESS=    0.0 pullay stress

  Mass of Ions in am
   POMASS =   1.00 12.01
  Ionic Valenz
   ZVAL   =   1.00  4.00
  Atomic Wigner-Seitz radii
   RWIGS  =  -1.00 -1.00
  virtual crystal weights 
   VCA    =   1.00  1.00
   NELECT =       8.0000    total number of electrons
   NUPDOWN=      -1.0000    fix difference up-down

 DOS related values:
   EMIN   =  10.00;   EMAX   =-10.00  energy-range for DOS
   EFERMI =   0.00
   ISMEAR =     0;   SIGMA  =   0.20  broadening in eV -4-tet -1-fermi 0-gaus

 Electronic relaxation 2 (details)
   IALGO  =     68    algorithm
   LDIAG  =      T    sub-space diagonalisation (order eigenvalues)
   LSUBROT=      F    optimize rotation matrix (better conditioning)
   TURBO    =      0    0=normal 1=particle mesh
   IRESTART =      0    0=no restart 2=restart with 2 vectors
   NREBOOT  =      0    no. of reboots
   NMIN     =      0    reboot dimension
   EREF     =   0.00    reference energy to select bands
   IMIX   =      4    mixing-type and parameters
     AMIX     =   0.40;   BMIX     =  1.00
     AMIX_MAG =   1.60;   BMIX_MAG =  1.00
     AMIN     =   0.10
     WC   =   100.;   INIMIX=   1;  MIXPRE=   1;  MAXMIX= -45

 Intra band minimization:
   WEIMIN = 0.0010     energy-eigenvalue tresh-hold
   EBREAK =  0.31E-07  absolut break condition
   DEPER  =   0.30     relativ break condition  

   TIME   =   0.40     timestep for ELM

  volume/ion in A,a.u.               =     213.61      1441.50
  Fermi-wavevector in a.u.,A,eV,Ry     =   0.320313  0.605304  1.395966  0.102601
  Thomas-Fermi vector in A             =   1.206817
 
 Write flags
   LWAVE        =      F    write WAVECAR
   LDOWNSAMPLE  =      F    k-point downsampling of WAVECAR
   LCHARG       =      F    write CHGCAR
   LVTOT        =      F    write LOCPOT, total local potential
   LVHAR        =      F    write LOCPOT, Hartree potential only
   LELF         =      F    write electronic localiz. function (ELF)
   LORBIT       =      0    0 simple, 1 ext, 2 COOP (PROOUT), +10 PAW based schemes


 Dipole corrections
   LMONO  =      F    monopole corrections only (constant potential shift)
   LDIPOL =      F    correct potential (dipole corrections)
   IDIPOL =      0    1-x, 2-y, 3-z, 4-all directions 
   EPSILON=  1.0000000 bulk dielectric constant

 Exchange correlation treatment:
   GGA     =    --    GGA type
   LEXCH   =     8    internal setting for exchange type
   VOSKOWN=      0    Vosko Wilk Nusair interpolation
   LHFCALC =     F    Hartree Fock is set to
   LHFONE  =     F    Hartree Fock one center treatment
   AEXX    =    0.0000 exact exchange contribution

 Linear response parameters
   LEPSILON=     F    determine dielectric tensor
   LRPA    =     F    only Hartree local field effects (RPA)
   LNABLA  =     F    use nabla operator in PAW spheres
   LVEL    =     F    velocity operator in full k-point grid
   LINTERFAST=   F  fast interpolation
   KINTER  =     0    interpolate to denser k-point grid
   CSHIFT  =0.1000    complex shift for real part using Kramers Kronig
   OMEGAMAX=  -1.0    maximum frequency
   DEG_THRESHOLD= 0.2000000E-02 threshold for treating states as degnerate
   RTIME   =   -0.100 relaxation time in fs
  (WPLASMAI=    0.000 imaginary part of plasma frequency in eV, 0.658/RTIME)
   DFIELD  = 0.0000000 0.0000000 0.0000000 field for delta impulse in time
 
 Orbital magnetization related:
   ORBITALMAG=     F  switch on orbital magnetization
   LCHIMAG   =     F  perturbation theory with respect to B field
   DQ        =  0.001000  dq finite difference perturbation B field
   LLRAUG    =     F  two centre corrections for induced B field



--------------------------------------------------------------------------------------------------------


 molecular dynamics for ions
   using a microcanonical ensemble
 charge density and potential will be updated during run
 non-spin polarized calculation
 RMM-DIIS sequential band-by-band and
  variant of blocked Davidson during initial phase
 perform sub-space diagonalisation
    before iterative eigenvector-optimisation
 modified Broyden-mixing scheme, WC =      100.0
 initial mixing is a Kerker type mixing with AMIX =  0.4000 and BMIX =      1.0000
 Hartree-type preconditioning will be used
 using additional bands            4
 reciprocal scheme for non local part
 use partial core corrections
 calculate Harris-corrections to forces 
   (improved forces if not selfconsistent)
 use gradient corrections 
 use of overlap-Matrix (Vanderbilt PP)
 Gauss-broadening in eV      SIGMA  =   0.20


--------------------------------------------------------------------------------------------------------


  energy-cutoff  :      400.00
  volume of cell :     1068.04
      direct lattice vectors                 reciprocal lattice vectors
    10.202430406  0.000000000  0.000000000     0.098015861 -0.000048433  0.001639604
     0.005035165 10.189908377  0.000000000     0.000000000  0.098136309  0.001165281
    -0.171913697 -0.121987821 10.273430685     0.000000000  0.000000000  0.097338468

  length of vectors
    10.202430406 10.189909621 10.275593092     0.098029586  0.098143227  0.097338468


 
 k-points in units of 2pi/SCALE and weight: read from INCAR                         
   0.02450397  0.02452197  0.02503584       0.250
  -0.02450397  0.02454619  0.02421604       0.250
   0.02450397 -0.02454619  0.02445320       0.250
  -0.02450397 -0.02452197  0.02363340       0.250
 
 k-points in reciprocal lattice and weights: read from INCAR                         
   0.25000000  0.25000000  0.25000000       0.250
  -0.25000000  0.25000000  0.25000000       0.250
   0.25000000 -0.25000000  0.25000000       0.250
  -0.25000000 -0.25000000  0.25000000       0.250
 
 position of ions in fractional coordinates (direct lattice) 
   0.53801594  0.40671028  0.36079405
   0.39466595  0.48028174  0.43843249
   0.55261218  0.56509012  0.44265872
   0.52781625  0.41647877  0.53942641
   0.50262729  0.46792376  0.44493428
 
 position of ions in cartesian coordinates  (Angst):
   5.42909260  4.10032799  3.70659268
   3.95359760  4.84054348  4.50420577
   5.56473351  5.70421757  4.54762364
   5.29437082  4.17807702  5.54175983
   5.05388577  4.71382363  4.57100153
 


--------------------------------------------------------------------------------------------------------


 k-point  1 :   0.2500 0.2500 0.2500  plane waves:   19396
 k-point  2 :  -0.2500 0.2500 0.2500  plane waves:   19391
 k-point  3 :   0.2500-0.2500 0.2500  plane waves:   19393
 k-point  4 :  -0.2500-0.2500 0.2500  plane waves:   19405

 maximum and minimum number of plane-waves per node :      4879     4824

 maximum number of plane-waves:     19405
 maximum index in each direction: 
   IXMAX=   16   IYMAX=   16   IZMAX=   16
   IXMIN=  -16   IYMIN=  -16   IZMIN=  -17


 parallel 3D FFT for wavefunctions:
    minimum data exchange during FFTs selected (reduces bandwidth)
 parallel 3D FFT for charge:
    minimum data exchange during FFTs selected (reduces bandwidth)


 total amount of memory used by VASP MPI-rank0    55613. kBytes
=======================================================================

   base      :      30000. kBytes
   nonl-proj :       2877. kBytes
   fftplans  :       8579. kBytes
   grid      :      13527. kBytes
   one-center:          6. kBytes
   wavefun   :        624. kBytes
 
     INWAV:  cpu time    0.0000: real time    0.0001
 Broyden mixing: mesh for mixing (old mesh)
   NGX = 33   NGY = 33   NGZ = 33
  (NGX  =140   NGY  =140   NGZ  =140)
  gives a total of  35937 points

 initial charge density was supplied:
 charge density of overlapping atoms calculated
 number of electron       8.0000000 magnetization 
 keeping initial charge density in first step


--------------------------------------------------------------------------------------------------------


 Maximum index for augmentation-charges          160 (set IRDMAX)


--------------------------------------------------------------------------------------------------------


 First call to EWALD:  gamma=   0.173
 Maximum number of real-space cells 3x 3x 3
 Maximum number of reciprocal cells 3x 3x 3

    FEWALD:  cpu time    0.0015: real time    0.0015


--------------------------------------- Iteration      1(   1)  ---------------------------------------


    POTLOK:  cpu time    0.1318: real time    0.1435
    SETDIJ:  cpu time    0.0034: real time    0.0039
     EDDAV:  cpu time    0.1855: real time    0.2134
       DOS:  cpu time    0.0004: real time    0.0016
    --------------------------------------------
      LOOP:  cpu time    0.3210: real time    0.3624

 eigenvalue-minimisations  :    96
 total energy-change (2. order) : 0.1885517E+02  (-0.1992682E+03)
 number of electron       8.0000000 magnetization 
 augmentation part        8.0000000 magnetization 

 Free energy of the ion-electron system (eV)
  ---------------------------------------------------
  alpha Z        PSCENC =         0.22681710
  Ewald energy   TEWEN  =       126.02272048
  -Hartree energ DENC   =      -243.78235801
  -exchange      EXHF   =         0.00000000
  -V(xc)+E(xc)   XCENC  =        21.87793246
  PAW double counting   =       117.05815612     -117.66307307
  entropy T*S    EENTRO =        -0.00000003
  eigenvalues    EBANDS =       -81.92678415
  atomic energy  EATOM  =       197.04175453
  Solvation  Ediel_sol  =         0.00000000
  ---------------------------------------------------
  free energy    TOTEN  =        18.85516544 eV

  energy without entropy =       18.85516547  energy(sigma->0) =       18.85516546


--------------------------------------------------------------------------------------------------------




--------------------------------------- Iteration      1(   2)  ---------------------------------------


     EDDAV:  cpu time    0.1466: real time    0.1514
       DOS:  cpu time    0.0004: real time    0.0004
    --------------------------------------------
      LOOP:  cpu time    0.1470: real time    0.1518

 eigenvalue-minimisations  :    72
 total energy-change (2. order) :-0.4047191E+02  (-0.4047191E+02)
 number of electron       8.0000000 magnetization 
 augmentation part        8.0000000 magnetization 

 Free energy of the ion-electron system (eV)
  ---------------------------------------------------
  alpha Z        PSCENC =         0.22681710
  Ewald energy   TEWEN  =       126.02272048
  -Hartree energ DENC   =      -243.78235801
  -exchange      EXHF   =         0.00000000
  -V(xc)+E(xc)   XCENC  =        21.87793246
  PAW double counting   =       117.05815612     -117.66307307
  entropy T*S    EENTRO =        -0.00000000
  eigenvalues    EBANDS =      -122.39869196
  atomic energy  EATOM  =       197.04175453
  Solvation  Ediel_sol  =         0.00000000
  ---------------------------------------------------
  free energy    TOTEN  =       -21.61674234 eV

  energy without entropy =      -21.61674234  energy(sigma->0) =      -21.61674234


--------------------------------------------------------------------------------------------------------




--------------------------------------- Iteration      1(   3)  ---------------------------------------


     EDDAV:  cpu time    0.1354: real time    0.1396
       DOS:  cpu time    0.0002: real time    0.0002
    --------------------------------------------
      LOOP:  cpu time    0.1356: real time    0.1398

 eigenvalue-minimisations  :    64
 total energy-change (2. order) :-0.5333249E+01  (-0.5333249E+01)
 number of electron       8.0000000 magnetization 
 augmentation part        8.0000000 magnetization 

 Free energy of the ion-electron system (eV)
  ---------------------------------------------------
  alpha Z        PSCENC =         0.22681710
  Ewald energy   TEWEN  =       126.02272048
  -Hartree energ DENC   =      -243.78235801
  -exchange      EXHF   =         0.00000000
  -V(xc)+E(xc)   XCENC  =        21.87793246
  PAW double counting   =       117.05815612     -117.66307307
  entropy T*S    EENTRO =        -0.00000000
  eigenvalues    EBANDS =      -127.73194140
  atomic energy  EATOM  =       197.04175453
  Solvation  Ediel_sol  =         0.00000000
  ---------------------------------------------------
  free energy    TOTEN  =       -26.94999178 eV

  energy without entropy =      -26.94999178  energy(sigma->0) =      -26.94999178


--------------------------------------------------------------------------------------------------------




--------------------------------------- Iteration      1(   4)  ---------------------------------------


     EDDAV:  cpu time    0.2297: real time    0.2436
       DOS:  cpu time    0.0002: real time    0.0002
    --------------------------------------------
      LOOP:  cpu time    0.2299: real time    0.2438

 eigenvalue-minimisations  :   128
 total energy-change (2. order) :-0.2448494E+00  (-0.2448494E+00)
 number of electron       8.0000000 magnetization 
 augmentation part        8.0000000 magnetization 

 Free energy of the ion-electron system (eV)
  ---------------------------------------------------
  alpha Z        PSCENC =         0.22681710
  Ewald energy   TEWEN  =       126.02272048
  -Hartree energ DENC   =      -243.78235801
  -exchange      EXHF   =         0.00000000
  -V(xc)+E(xc)   XCENC  =        21.87793246
  PAW double counting   =       117.05815612     -117.66307307
  entropy T*S    EENTRO =        -0.00000000
  eigenvalues    EBANDS =      -127.97679076
  atomic energy  EATOM  =       197.04175453
  Solvation  Ediel_sol  =         0.00000000
  ---------------------------------------------------
  free energy    TOTEN  =       -27.19484114 eV

  energy without entropy =      -27.19484114  energy(sigma->0) =      -27.19484114


--------------------------------------------------------------------------------------------------------




--------------------------------------- Iteration      1(   5)  ---------------------------------------


     EDDAV:  cpu time    0.1886: real time    0.1955
       DOS:  cpu time    0.0002: real time    0.0002
    CHARGE:  cpu time    0.0192: real time    0.0196
    MIXING:  cpu time    0.0038: real time    0.0038
    --------------------------------------------
      LOOP:  cpu time    0.2118: real time    0.2192

 eigenvalue-minimisations  :    96
 total energy-change (2. order) :-0.8790609E-04  (-0.8790691E-04)
 number of electron       8.0000001 magnetization 
 augmentation part        0.2166481 magnetization 

 Broyden mixing:
  rms(total) = 0.82898E+00    rms(broyden)= 0.82876E+00
  rms(prec ) = 0.11722E+01
  weight for this iteration     100.00

 Free energy of the ion-electron system (eV)
  ---------------------------------------------------
  alpha Z        PSCENC =         0.22681710
  Ewald energy   TEWEN  =       126.02272048
  -Hartree energ DENC   =      -243.78235801
  -exchange      EXHF   =         0.00000000
  -V(xc)+E(xc)   XCENC  =        21.87793246
  PAW double counting   =       117.05815612     -117.66307307
  entropy T*S    EENTRO =        -0.00000000
  eigenvalues    EBANDS =      -127.97687867
  atomic energy  EATOM  =       197.04175453
  Solvation  Ediel_sol  =         0.00000000
  ---------------------------------------------------
  free energy    TOTEN  =       -27.19492905 eV

  energy without entropy =      -27.19492905  energy(sigma->0) =      -27.19492905


--------------------------------------------------------------------------------------------------------




--------------------------------------- Iteration      1(   6)  ---------------------------------------


    POTLOK:  cpu time    0.1271: real time    0.1295
    SETDIJ:  cpu time    0.0016: real time    0.0016
    EDDIAG:  cpu time    0.0390: real time    0.0479
  RMM-DIIS:  cpu time    0.1393: real time    0.1409
    ORTHCH:  cpu time    0.0016: real time    0.0016
       DOS:  cpu time    0.0002: real time    0.0002
    CHARGE:  cpu time    0.0175: real time    0.0177
    MIXING:  cpu time    0.0042: real time    0.0056
    --------------------------------------------
      LOOP:  cpu time    0.3304: real time    0.3450

 eigenvalue-minimisations  :    64
 total energy-change (2. order) : 0.2624407E+01  (-0.4767692E+00)
 number of electron       8.0000001 magnetization 
 augmentation part        0.1909888 magnetization 

 Broyden mixing:
  rms(total) = 0.41128E+00    rms(broyden)= 0.41118E+00
  rms(prec ) = 0.53055E+00
  weight for this iteration     100.00

 eigenvalues of (default mixing * dielectric matrix)
  average eigenvalue GAMMA=   1.2868
  1.2868

 Free energy of the ion-electron system (eV)
  ---------------------------------------------------
  alpha Z        PSCENC =         0.22681710
  Ewald energy   TEWEN  =       126.02272048
  -Hartree energ DENC   =      -262.57350630
  -exchange      EXHF   =         0.00000000
  -V(xc)+E(xc)   XCENC  =        23.01930236
  PAW double counting   =       230.63139525     -231.39827689
  entropy T*S    EENTRO =        -0.00000000
  eigenvalues    EBANDS =      -107.54072855
  atomic energy  EATOM  =       197.04175453
  Solvation  Ediel_sol  =         0.00000000
  ---------------------------------------------------
  free energy    TOTEN  =       -24.57052202 eV

  energy without entropy =      -24.57052202  energy(sigma->0) =      -24.57052202


--------------------------------------------------------------------------------------------------------




--------------------------------------- Iteration      1(   7)  ---------------------------------------


    POTLOK:  cpu time    0.1279: real time    0.1292
    SETDIJ:  cpu time    0.0017: real time    0.0017
    EDDIAG:  cpu time    0.0347: real time    0.0350
  RMM-DIIS:  cpu time    0.1346: real time    0.1399
    ORTHCH:  cpu time    0.0013: real time    0.0013
       DOS:  cpu time    0.0001: real time    0.0001
    CHARGE:  cpu time    0.0165: real time    0.0167
    MIXING:  cpu time    0.0053: real time    0.0053
    --------------------------------------------
      LOOP:  cpu time    0.3222: real time    0.3293

 eigenvalue-minimisations  :    64
 total energy-change (2. order) : 0.4432563E+00  (-0.9851048E-01)
 number of electron       8.0000001 magnetization 
 augmentation part        0.1814779 magnetization 

 Broyden mixing:
  rms(total) = 0.22092E+00    rms(broyden)= 0.22086E+00
  rms(prec ) = 0.26769E+00
  weight for this iteration     100.00

 eigenvalues of (default mixing * dielectric matrix)
  average eigenvalue GAMMA=   1.8350
  1.4274  2.2426

 Free energy of the ion-electron system (eV)
  ---------------------------------------------------
  alpha Z        PSCENC =         0.22681710
  Ewald energy   TEWEN  =       126.02272048
  -Hartree energ DENC   =      -273.33376653
  -exchange      EXHF   =         0.00000000
  -V(xc)+E(xc)   XCENC  =        23.81783339
  PAW double counting   =       343.91568307     -344.71460684
  entropy T*S    EENTRO =        -0.00000000
  eigenvalues    EBANDS =       -97.10370092
  atomic energy  EATOM  =       197.04175453
  Solvation  Ediel_sol  =         0.00000000
  ---------------------------------------------------
  free energy    TOTEN  =       -24.12726573 eV

  energy without entropy =      -24.12726573  energy(sigma->0) =      -24.12726573


--------------------------------------------------------------------------------------------------------




--------------------------------------- Iteration      1(   8)  ---------------------------------------


    POTLOK:  cpu time    0.1307: real time    0.1320
    SETDIJ:  cpu time    0.0016: real time    0.0016
    EDDIAG:  cpu time    0.0350: real time    0.0353
  RMM-DIIS:  cpu time    0.1398: real time    0.1422
    ORTHCH:  cpu time    0.0015: real time    0.0015
       DOS:  cpu time    0.0002: real time    0.0002
    CHARGE:  cpu time    0.0179: real time    0.0181
    MIXING:  cpu time    0.0041: real time    0.0041
    --------------------------------------------
      LOOP:  cpu time    0.3307: real time    0.3350

 eigenvalue-minimisations  :    64
 total energy-change (2. order) : 0.1420526E+00  (-0.1631488E-01)
 number of electron       8.0000001 magnetization 
 augmentation part        0.1801722 magnetization 

 Broyden mixing:
  rms(total) = 0.23162E-01    rms(broyden)= 0.23138E-01
  rms(prec ) = 0.51765E-01
  weight for this iteration     100.00

 eigenvalues of (default mixing * dielectric matrix)
  average eigenvalue GAMMA=   1.5327
  2.2485  0.9728  1.3770

 Free energy of the ion-electron system (eV)
  ---------------------------------------------------
  alpha Z        PSCENC =         0.22681710
  Ewald energy   TEWEN  =       126.02272048
  -Hartree energ DENC   =      -278.71521909
  -exchange      EXHF   =         0.00000000
  -V(xc)+E(xc)   XCENC  =        24.35111693
  PAW double counting   =       443.31339307     -444.08153112
  entropy T*S    EENTRO =        -0.00000000
  eigenvalues    EBANDS =       -92.14426503
  atomic energy  EATOM  =       197.04175453
  Solvation  Ediel_sol  =         0.00000000
  ---------------------------------------------------
  free energy    TOTEN  =       -23.98521314 eV

  energy without entropy =      -23.98521314  energy(sigma->0) =      -23.98521314


--------------------------------------------------------------------------------------------------------




--------------------------------------- Iteration      1(   9)  ---------------------------------------


    POTLOK:  cpu time    0.1288: real time    0.1299
    SETDIJ:  cpu time    0.0016: real time    0.0016
    EDDIAG:  cpu time    0.0350: real time    0.0352
  RMM-DIIS:  cpu time    0.1390: real time    0.1419
    ORTHCH:  cpu time    0.0013: real time    0.0014
       DOS:  cpu time    0.0002: real time    0.0002
    CHARGE:  cpu time    0.0163: real time    0.0165
    MIXING:  cpu time    0.0044: real time    0.0053
    --------------------------------------------
      LOOP:  cpu time    0.3267: real time    0.3319

 eigenvalue-minimisations  :    64
 total energy-change (2. order) : 0.5492795E-02  (-0.1061596E-02)
 number of electron       8.0000001 magnetization 
 augmentation part        0.1796389 magnetization 

 Broyden mixing:
  rms(total) = 0.18980E-01    rms(broyden)= 0.18976E-01
  rms(prec ) = 0.39292E-01
  weight for this iteration     100.00

 eigenvalues of (default mixing * dielectric matrix)
  average eigenvalue GAMMA=   2.0705
  1.0046  1.3449  2.9663  2.9663

 Free energy of the ion-electron system (eV)
  ---------------------------------------------------
  alpha Z        PSCENC =         0.22681710
  Ewald energy   TEWEN  =       126.02272048
  -Hartree energ DENC   =      -279.92619797
  -exchange      EXHF   =         0.00000000
  -V(xc)+E(xc)   XCENC  =        24.41599277
  PAW double counting   =       445.34108684     -446.11210729
  entropy T*S    EENTRO =        -0.00000000
  eigenvalues    EBANDS =       -90.98978681
  atomic energy  EATOM  =       197.04175453
  Solvation  Ediel_sol  =         0.00000000
  ---------------------------------------------------
  free energy    TOTEN  =       -23.97972035 eV

  energy without entropy =      -23.97972035  energy(sigma->0) =      -23.97972035


--------------------------------------------------------------------------------------------------------




--------------------------------------- Iteration      1(  10)  ---------------------------------------


    POTLOK:  cpu time    0.1285: real time    0.1299
    SETDIJ:  cpu time    0.0016: real time    0.0016
    EDDIAG:  cpu time    0.0343: real time    0.0346
  RMM-DIIS:  cpu time    0.1346: real time    0.1381
    ORTHCH:  cpu time    0.0018: real time    0.0018
       DOS:  cpu time    0.0002: real time    0.0002
    CHARGE:  cpu time    0.0164: real time    0.0165
    MIXING:  cpu time    0.0043: real time    0.0044
    --------------------------------------------
      LOOP:  cpu time    0.3216: real time    0.3270

 eigenvalue-minimisations  :    64
 total energy-change (2. order) : 0.6597834E-02  (-0.2463502E-02)
 number of electron       8.0000001 magnetization 
 augmentation part        0.1786192 magnetization 

 Broyden mixing:
  rms(total) = 0.26707E-01    rms(broyden)= 0.26705E-01
  rms(prec ) = 0.34444E-01
  weight for this iteration     100.00

 eigenvalues of (default mixing * dielectric matrix)
  average eigenvalue GAMMA=   1.7928
  3.0840  2.3796  0.9881  1.2562  1.2562

 Free energy of the ion-electron system (eV)
  ---------------------------------------------------
  alpha Z        PSCENC =         0.22681710
  Ewald energy   TEWEN  =       126.02272048
  -Hartree energ DENC   =      -282.07886242
  -exchange      EXHF   =         0.00000000
  -V(xc)+E(xc)   XCENC  =        24.48670500
  PAW double counting   =       430.90313820     -431.67746891
  entropy T*S    EENTRO =        -0.00000000
  eigenvalues    EBANDS =       -88.89792649
  atomic energy  EATOM  =       197.04175453
  Solvation  Ediel_sol  =         0.00000000
  ---------------------------------------------------
  free energy    TOTEN  =       -23.97312251 eV

  energy without entropy =      -23.97312251  energy(sigma->0) =      -23.97312251


--------------------------------------------------------------------------------------------------------




--------------------------------------- Iteration      1(  11)  ---------------------------------------


    POTLOK:  cpu time    0.1232: real time    0.1248
    SETDIJ:  cpu time    0.0016: real time    0.0016
    EDDIAG:  cpu time    0.0342: real time    0.0345
  RMM-DIIS:  cpu time    0.1363: real time    0.1377
    ORTHCH:  cpu time    0.0013: real time    0.0014
       DOS:  cpu time    0.0002: real time    0.0002
    CHARGE:  cpu time    0.0172: real time    0.0174
    MIXING:  cpu time    0.0045: real time    0.0046
    --------------------------------------------
      LOOP:  cpu time    0.3186: real time    0.3222

 eigenvalue-minimisations  :    64
 total energy-change (2. order) :-0.1075269E-02  (-0.1024726E-02)
 number of electron       8.0000001 magnetization 
 augmentation part        0.1790444 magnetization 

 Broyden mixing:
  rms(total) = 0.11016E-01    rms(broyden)= 0.11012E-01
  rms(prec ) = 0.16423E-01
  weight for this iteration     100.00

 eigenvalues of (default mixing * dielectric matrix)
  average eigenvalue GAMMA=   2.2968
  4.9895  3.0807  2.4242  1.2260  1.0302  1.0302

 Free energy of the ion-electron system (eV)
  ---------------------------------------------------
  alpha Z        PSCENC =         0.22681710
  Ewald energy   TEWEN  =       126.02272048
  -Hartree energ DENC   =      -281.96600182
  -exchange      EXHF   =         0.00000000
  -V(xc)+E(xc)   XCENC  =        24.50121038
  PAW double counting   =       439.54228186     -440.30856997
  entropy T*S    EENTRO =        -0.00000000
  eigenvalues    EBANDS =       -89.03441034
  atomic energy  EATOM  =       197.04175453
  Solvation  Ediel_sol  =         0.00000000
  ---------------------------------------------------
  free energy    TOTEN  =       -23.97419778 eV

  energy without entropy =      -23.97419778  energy(sigma->0) =      -23.97419778


--------------------------------------------------------------------------------------------------------




--------------------------------------- Iteration      1(  12)  ---------------------------------------


    POTLOK:  cpu time    0.1159: real time    0.1181
    SETDIJ:  cpu time    0.0016: real time    0.0016
    EDDIAG:  cpu time    0.0339: real time    0.0343
  RMM-DIIS:  cpu time    0.1407: real time    0.1424
    ORTHCH:  cpu time    0.0015: real time    0.0015
       DOS:  cpu time    0.0001: real time    0.0001
    CHARGE:  cpu time    0.0163: real time    0.0165
    MIXING:  cpu time    0.0045: real time    0.0046
    --------------------------------------------
      LOOP:  cpu time    0.3147: real time    0.3191

 eigenvalue-minimisations  :    64
 total energy-change (2. order) :-0.8911445E-02  (-0.2472728E-03)
 number of electron       8.0000001 magnetization 
 augmentation part        0.1791892 magnetization 

 Broyden mixing:
  rms(total) = 0.11484E-01    rms(broyden)= 0.11483E-01
  rms(prec ) = 0.15146E-01
  weight for this iteration     100.00

 eigenvalues of (default mixing * dielectric matrix)
  average eigenvalue GAMMA=   2.0237
  4.9012  2.9673  2.4178  1.1758  1.0331  1.0331  0.6374

 Free energy of the ion-electron system (eV)
  ---------------------------------------------------
  alpha Z        PSCENC =         0.22681710
  Ewald energy   TEWEN  =       126.02272048
  -Hartree energ DENC   =      -282.20579863
  -exchange      EXHF   =         0.00000000
  -V(xc)+E(xc)   XCENC  =        24.49263155
  PAW double counting   =       435.96545613     -436.73173346
  entropy T*S    EENTRO =        -0.00000000
  eigenvalues    EBANDS =       -88.79495692
  atomic energy  EATOM  =       197.04175453
  Solvation  Ediel_sol  =         0.00000000
  ---------------------------------------------------
  free energy    TOTEN  =       -23.98310923 eV

  energy without entropy =      -23.98310923  energy(sigma->0) =      -23.98310923


--------------------------------------------------------------------------------------------------------




--------------------------------------- Iteration      1(  13)  ---------------------------------------


    POTLOK:  cpu time    0.1188: real time    0.1203
    SETDIJ:  cpu time    0.0016: real time    0.0016
    EDDIAG:  cpu time    0.0369: real time    0.0375
  RMM-DIIS:  cpu time    0.1377: real time    0.1394
    ORTHCH:  cpu time    0.0013: real time    0.0013
       DOS:  cpu time    0.0002: real time    0.0002
    CHARGE:  cpu time    0.0731: real time    0.0735
    MIXING:  cpu time    0.0046: real time    0.0047
    --------------------------------------------
      LOOP:  cpu time    0.3743: real time    0.3785

 eigenvalue-minimisations  :    64
 total energy-change (2. order) :-0.6384862E-03  (-0.1163597E-03)
 number of electron       8.0000001 magnetization 
 augmentation part        0.1789271 magnetization 

 Broyden mixing:
  rms(total) = 0.36385E-02    rms(broyden)= 0.36378E-02
  rms(prec ) = 0.54048E-02
  weight for this iteration     100.00

 eigenvalues of (default mixing * dielectric matrix)
  average eigenvalue GAMMA=   2.5237
  6.4519  4.4921  2.4876  2.4876  1.1975  1.1975  0.9947  0.8807

 Free energy of the ion-electron system (eV)
  ---------------------------------------------------
  alpha Z        PSCENC =         0.22681710
  Ewald energy   TEWEN  =       126.02272048
  -Hartree energ DENC   =      -282.37824203
  -exchange      EXHF   =         0.00000000
  -V(xc)+E(xc)   XCENC  =        24.49695735
  PAW double counting   =       435.72483020     -436.49341965
  entropy T*S    EENTRO =        -0.00000000
  eigenvalues    EBANDS =       -88.62516570
  atomic energy  EATOM  =       197.04175453
  Solvation  Ediel_sol  =         0.00000000
  ---------------------------------------------------
  free energy    TOTEN  =       -23.98374771 eV

  energy without entropy =      -23.98374771  energy(sigma->0) =      -23.98374771


--------------------------------------------------------------------------------------------------------




--------------------------------------- Iteration      1(  14)  ---------------------------------------


    POTLOK:  cpu time    0.1137: real time    0.1148
    SETDIJ:  cpu time    0.0016: real time    0.0016
    EDDIAG:  cpu time    0.0343: real time    0.0346
  RMM-DIIS:  cpu time    0.1370: real time    0.1391
    ORTHCH:  cpu time    0.0018: real time    0.0018
       DOS:  cpu time    0.0002: real time    0.0002
    CHARGE:  cpu time    0.0161: real time    0.0163
    MIXING:  cpu time    0.0052: real time    0.0076
    --------------------------------------------
      LOOP:  cpu time    0.3098: real time    0.3159

 eigenvalue-minimisations  :    64
 total energy-change (2. order) :-0.2934491E-02  (-0.1117654E-03)
 number of electron       8.0000001 magnetization 
 augmentation part        0.1788404 magnetization 

 Broyden mixing:
  rms(total) = 0.27186E-02    rms(broyden)= 0.27171E-02
  rms(prec ) = 0.35174E-02
  weight for this iteration     100.00

 eigenvalues of (default mixing * dielectric matrix)
  average eigenvalue GAMMA=   2.3286
  6.5942  4.2863  2.6270  2.3999  1.1621  1.1621  1.0155  0.8551  0.8551

 Free energy of the ion-electron system (eV)
  ---------------------------------------------------
  alpha Z        PSCENC =         0.22681710
  Ewald energy   TEWEN  =       126.02272048
  -Hartree energ DENC   =      -282.34848893
  -exchange      EXHF   =         0.00000000
  -V(xc)+E(xc)   XCENC  =        24.48559863
  PAW double counting   =       435.16538127     -435.93484530
  entropy T*S    EENTRO =        -0.00000000
  eigenvalues    EBANDS =       -88.64561998
  atomic energy  EATOM  =       197.04175453
  Solvation  Ediel_sol  =         0.00000000
  ---------------------------------------------------
  free energy    TOTEN  =       -23.98668221 eV

  energy without entropy =      -23.98668221  energy(sigma->0) =      -23.98668221


--------------------------------------------------------------------------------------------------------




--------------------------------------- Iteration      1(  15)  ---------------------------------------


    POTLOK:  cpu time    0.1147: real time    0.1157
    SETDIJ:  cpu time    0.0016: real time    0.0016
    EDDIAG:  cpu time    0.0338: real time    0.0342
  RMM-DIIS:  cpu time    0.1366: real time    0.1397
    ORTHCH:  cpu time    0.0013: real time    0.0013
       DOS:  cpu time    0.0001: real time    0.0001
    CHARGE:  cpu time    0.0163: real time    0.0164
    MIXING:  cpu time    0.0049: real time    0.0050
    --------------------------------------------
      LOOP:  cpu time    0.3093: real time    0.3141

 eigenvalue-minimisations  :    64
 total energy-change (2. order) :-0.1859775E-03  (-0.7384811E-05)
 number of electron       8.0000001 magnetization 
 augmentation part        0.1787583 magnetization 

 Broyden mixing:
  rms(total) = 0.27633E-02    rms(broyden)= 0.27630E-02
  rms(prec ) = 0.36467E-02
  weight for this iteration     100.00

 eigenvalues of (default mixing * dielectric matrix)
  average eigenvalue GAMMA=   2.5853
  7.7006  4.8589  3.0961  2.6569  2.2911  1.2221  1.2221  0.9935  0.9144  0.8969

 Free energy of the ion-electron system (eV)
  ---------------------------------------------------
  alpha Z        PSCENC =         0.22681710
  Ewald energy   TEWEN  =       126.02272048
  -Hartree energ DENC   =      -282.39320160
  -exchange      EXHF   =         0.00000000
  -V(xc)+E(xc)   XCENC  =        24.48867619
  PAW double counting   =       435.36221258     -436.13156517
  entropy T*S    EENTRO =        -0.00000000
  eigenvalues    EBANDS =       -88.60428228
  atomic energy  EATOM  =       197.04175453
  Solvation  Ediel_sol  =         0.00000000
  ---------------------------------------------------
  free energy    TOTEN  =       -23.98686818 eV

  energy without entropy =      -23.98686818  energy(sigma->0) =      -23.98686818


--------------------------------------------------------------------------------------------------------




--------------------------------------- Iteration      1(  16)  ---------------------------------------


    POTLOK:  cpu time    0.1151: real time    0.1161
    SETDIJ:  cpu time    0.0017: real time    0.0018
    EDDIAG:  cpu time    0.0352: real time    0.0356
  RMM-DIIS:  cpu time    0.1388: real time    0.1401
    ORTHCH:  cpu time    0.0014: real time    0.0014
       DOS:  cpu time    0.0002: real time    0.0002
    CHARGE:  cpu time    0.0163: real time    0.0165
    MIXING:  cpu time    0.0051: real time    0.0051
    --------------------------------------------
      LOOP:  cpu time    0.3137: real time    0.3168

 eigenvalue-minimisations  :    64
 total energy-change (2. order) :-0.2447281E-03  (-0.2919070E-04)
 number of electron       8.0000001 magnetization 
 augmentation part        0.1788658 magnetization 

 Broyden mixing:
  rms(total) = 0.13760E-02    rms(broyden)= 0.13752E-02
  rms(prec ) = 0.18152E-02
  weight for this iteration     100.00

 eigenvalues of (default mixing * dielectric matrix)
  average eigenvalue GAMMA=   2.5526
  8.1874  4.9486  3.8272  2.4891  2.3815  1.2001  1.2001  0.9886  0.9886  0.8768
  0.9910

 Free energy of the ion-electron system (eV)
  ---------------------------------------------------
  alpha Z        PSCENC =         0.22681710
  Ewald energy   TEWEN  =       126.02272048
  -Hartree energ DENC   =      -282.32027624
  -exchange      EXHF   =         0.00000000
  -V(xc)+E(xc)   XCENC  =        24.48641735
  PAW double counting   =       435.42718161     -436.19550304
  entropy T*S    EENTRO =        -0.00000000
  eigenvalues    EBANDS =       -88.67622469
  atomic energy  EATOM  =       197.04175453
  Solvation  Ediel_sol  =         0.00000000
  ---------------------------------------------------
  free energy    TOTEN  =       -23.98711291 eV

  energy without entropy =      -23.98711291  energy(sigma->0) =      -23.98711291


--------------------------------------------------------------------------------------------------------




--------------------------------------- Iteration      1(  17)  ---------------------------------------


    POTLOK:  cpu time    0.1221: real time    0.1245
    SETDIJ:  cpu time    0.0016: real time    0.0016
    EDDIAG:  cpu time    0.0340: real time    0.0343
  RMM-DIIS:  cpu time    0.1347: real time    0.1375
    ORTHCH:  cpu time    0.0016: real time    0.0016
       DOS:  cpu time    0.0002: real time    0.0002
    CHARGE:  cpu time    0.0160: real time    0.0162
    MIXING:  cpu time    0.0053: real time    0.0053
    --------------------------------------------
      LOOP:  cpu time    0.3155: real time    0.3211

 eigenvalue-minimisations  :    64
 total energy-change (2. order) :-0.2129937E-04  (-0.1798684E-05)
 number of electron       8.0000001 magnetization 
 augmentation part        0.1788443 magnetization 

 Broyden mixing:
  rms(total) = 0.42632E-03    rms(broyden)= 0.42629E-03
  rms(prec ) = 0.53769E-03
  weight for this iteration     100.00

 eigenvalues of (default mixing * dielectric matrix)
  average eigenvalue GAMMA=   2.5847
  8.5428  5.2856  3.8279  2.6736  2.4173  1.6924  1.3098  1.3098  1.0523  1.0523
  0.9690  0.8835

 Free energy of the ion-electron system (eV)
  ---------------------------------------------------
  alpha Z        PSCENC =         0.22681710
  Ewald energy   TEWEN  =       126.02272048
  -Hartree energ DENC   =      -282.36034636
  -exchange      EXHF   =         0.00000000
  -V(xc)+E(xc)   XCENC  =        24.48811896
  PAW double counting   =       435.42178278     -436.19044923
  entropy T*S    EENTRO =        -0.00000000
  eigenvalues    EBANDS =       -88.63753248
  atomic energy  EATOM  =       197.04175453
  Solvation  Ediel_sol  =         0.00000000
  ---------------------------------------------------
  free energy    TOTEN  =       -23.98713421 eV

  energy without entropy =      -23.98713421  energy(sigma->0) =      -23.98713421


--------------------------------------------------------------------------------------------------------




--------------------------------------- Iteration      1(  18)  ---------------------------------------


    POTLOK:  cpu time    0.1188: real time    0.1198
    SETDIJ:  cpu time    0.0016: real time    0.0016
    EDDIAG:  cpu time    0.0338: real time    0.0342
  RMM-DIIS:  cpu time    0.1363: real time    0.1383
    ORTHCH:  cpu time    0.0013: real time    0.0013
       DOS:  cpu time    0.0001: real time    0.0002
    CHARGE:  cpu time    0.0166: real time    0.0167
    MIXING:  cpu time    0.0054: real time    0.0054
    --------------------------------------------
      LOOP:  cpu time    0.3138: real time    0.3174

 eigenvalue-minimisations  :    64
 total energy-change (2. order) :-0.2001091E-04  (-0.1305813E-05)
 number of electron       8.0000001 magnetization 
 augmentation part        0.1788163 magnetization 

 Broyden mixing:
  rms(total) = 0.35658E-03    rms(broyden)= 0.35634E-03
  rms(prec ) = 0.48168E-03
  weight for this iteration     100.00

 eigenvalues of (default mixing * dielectric matrix)
  average eigenvalue GAMMA=   2.5768
  8.6729  5.5076  3.5621  3.3893  2.4521  2.3769  1.2126  1.2126  1.1408  1.1408
  0.9687  0.9687  0.8936

 Free energy of the ion-electron system (eV)
  ---------------------------------------------------
  alpha Z        PSCENC =         0.22681710
  Ewald energy   TEWEN  =       126.02272048
  -Hartree energ DENC   =      -282.36455687
  -exchange      EXHF   =         0.00000000
  -V(xc)+E(xc)   XCENC  =        24.48788194
  PAW double counting   =       435.36356524     -436.13239186
  entropy T*S    EENTRO =        -0.00000000
  eigenvalues    EBANDS =       -88.63294478
  atomic energy  EATOM  =       197.04175453
  Solvation  Ediel_sol  =         0.00000000
  ---------------------------------------------------
  free energy    TOTEN  =       -23.98715422 eV

  energy without entropy =      -23.98715422  energy(sigma->0) =      -23.98715422


--------------------------------------------------------------------------------------------------------




--------------------------------------- Iteration      1(  19)  ---------------------------------------


    POTLOK:  cpu time    0.1219: real time    0.1229
    SETDIJ:  cpu time    0.0019: real time    0.0019
    EDDIAG:  cpu time    0.0342: real time    0.0346
  RMM-DIIS:  cpu time    0.1109: real time    0.1124
    ORTHCH:  cpu time    0.0014: real time    0.0014
       DOS:  cpu time    0.0002: real time    0.0002
    CHARGE:  cpu time    0.0177: real time    0.0179
    MIXING:  cpu time    0.0063: real time    0.0063
    --------------------------------------------
      LOOP:  cpu time    0.2944: real time    0.2976

 eigenvalue-minimisations  :    48
 total energy-change (2. order) :-0.1957319E-05  (-0.1028783E-06)
 number of electron       8.0000001 magnetization 
 augmentation part        0.1788217 magnetization 

 Broyden mixing:
  rms(total) = 0.12716E-03    rms(broyden)= 0.12715E-03
  rms(prec ) = 0.16345E-03
  weight for this iteration     100.00

 eigenvalues of (default mixing * dielectric matrix)
  average eigenvalue GAMMA=   2.5696
  8.7491  5.6750  3.7739  3.7739  2.4991  2.3742  1.3853  1.3853  1.3727  1.1602
  1.0069  1.0069  0.9062  0.9062

 Free energy of the ion-electron system (eV)
  ---------------------------------------------------
  alpha Z        PSCENC =         0.22681710
  Ewald energy   TEWEN  =       126.02272048
  -Hartree energ DENC   =      -282.35544311
  -exchange      EXHF   =         0.00000000
  -V(xc)+E(xc)   XCENC  =        24.48741921
  PAW double counting   =       435.35159902     -436.12032494
  entropy T*S    EENTRO =        -0.00000000
  eigenvalues    EBANDS =       -88.64169846
  atomic energy  EATOM  =       197.04175453
  Solvation  Ediel_sol  =         0.00000000
  ---------------------------------------------------
  free energy    TOTEN  =       -23.98715618 eV

  energy without entropy =      -23.98715618  energy(sigma->0) =      -23.98715618


--------------------------------------------------------------------------------------------------------




--------------------------------------- Iteration      1(  20)  ---------------------------------------


    POTLOK:  cpu time    0.1288: real time    0.1315
    SETDIJ:  cpu time    0.0016: real time    0.0017
    EDDIAG:  cpu time    0.0915: real time    0.0920
  RMM-DIIS:  cpu time    0.1151: real time    0.1171
    ORTHCH:  cpu time    0.0014: real time    0.0014
       DOS:  cpu time    0.0002: real time    0.0002
    CHARGE:  cpu time    0.0167: real time    0.0169
    MIXING:  cpu time    0.0059: real time    0.0059
    --------------------------------------------
      LOOP:  cpu time    0.3613: real time    0.3667

 eigenvalue-minimisations  :    48
 total energy-change (2. order) :-0.2056440E-05  (-0.6487908E-07)
 number of electron       8.0000001 magnetization 
 augmentation part        0.1788260 magnetization 

 Broyden mixing:
  rms(total) = 0.15354E-04    rms(broyden)= 0.15235E-04
  rms(prec ) = 0.24224E-04
  weight for this iteration     100.00

 eigenvalues of (default mixing * dielectric matrix)
  average eigenvalue GAMMA=   2.4538
  8.7665  5.6489  4.0448  3.4129  2.5150  2.3686  1.6281  1.3393  1.3393  1.0782
  0.9723  0.9723  0.9136  0.9136  0.8933

 Free energy of the ion-electron system (eV)
  ---------------------------------------------------
  alpha Z        PSCENC =         0.22681710
  Ewald energy   TEWEN  =       126.02272048
  -Hartree energ DENC   =      -282.35312983
  -exchange      EXHF   =         0.00000000
  -V(xc)+E(xc)   XCENC  =        24.48733758
  PAW double counting   =       435.36026934     -436.12895966
  entropy T*S    EENTRO =        -0.00000000
  eigenvalues    EBANDS =       -88.64396777
  atomic energy  EATOM  =       197.04175453
  Solvation  Ediel_sol  =         0.00000000
  ---------------------------------------------------
  free energy    TOTEN  =       -23.98715823 eV

  energy without entropy =      -23.98715823  energy(sigma->0) =      -23.98715823


--------------------------------------------------------------------------------------------------------




--------------------------------------- Iteration      1(  21)  ---------------------------------------


    POTLOK:  cpu time    0.1232: real time    0.1251
    SETDIJ:  cpu time    0.0018: real time    0.0018
    EDDIAG:  cpu time    0.0352: real time    0.0356
  RMM-DIIS:  cpu time    0.1127: real time    0.1144
    ORTHCH:  cpu time    0.0023: real time    0.0023
       DOS:  cpu time    0.0002: real time    0.0002
    --------------------------------------------
      LOOP:  cpu time    0.2753: real time    0.2793

 eigenvalue-minimisations  :    48
 total energy-change (2. order) :-0.2170507E-06  (-0.1806290E-07)
 number of electron       8.0000001 magnetization 
 augmentation part        0.1788260 magnetization 

 Free energy of the ion-electron system (eV)
  ---------------------------------------------------
  alpha Z        PSCENC =         0.22681710
  Ewald energy   TEWEN  =       126.02272048
  -Hartree energ DENC   =      -282.35364678
  -exchange      EXHF   =         0.00000000
  -V(xc)+E(xc)   XCENC  =        24.48738880
  PAW double counting   =       435.36162802     -436.13031531
  entropy T*S    EENTRO =        -0.00000000
  eigenvalues    EBANDS =       -88.64350529
  atomic energy  EATOM  =       197.04175453
  Solvation  Ediel_sol  =         0.00000000
  ---------------------------------------------------
  free energy    TOTEN  =       -23.98715845 eV

  energy without entropy =      -23.98715845  energy(sigma->0) =      -23.98715845


--------------------------------------------------------------------------------------------------------




 average (electrostatic) potential at core
  the test charge radii are     0.5201  0.6991
  (the norm of the test charge is              1.0000)
       1 -41.3315       2 -41.4479       3 -41.4083       4 -41.2604       5 -58.1173
 
 
 
 E-fermi :  -8.1653     XC(G=0):  -0.6709     alpha+bet : -0.1972


 k-point     1 :       0.2500    0.2500    0.2500
  band No.  band energies     occupation 
      1     -16.7129      2.00000
      2      -9.3209      2.00000
      3      -9.1692      2.00000
      4      -9.1189      2.00000
      5      -0.3533      0.00000
      6       0.5128      0.00000
      7       0.6281      0.00000
      8       0.6562      0.00000

 k-point     2 :      -0.2500    0.2500    0.2500
  band No.  band energies     occupation 
      1     -16.7129      2.00000
      2      -9.3208      2.00000
      3      -9.1691      2.00000
      4      -9.1189      2.00000
      5      -0.3560      0.00000
      6       0.5142      0.00000
      7       0.6329      0.00000
      8       0.6653      0.00000

 k-point     3 :       0.2500   -0.2500    0.2500
  band No.  band energies     occupation 
      1     -16.7129      2.00000
      2      -9.3208      2.00000
      3      -9.1691      2.00000
      4      -9.1189      2.00000
      5      -0.3550      0.00000
      6       0.5117      0.00000
      7       0.6305      0.00000
      8       0.6649      0.00000

 k-point     4 :      -0.2500   -0.2500    0.2500
  band No.  band energies     occupation 
      1     -16.7129      2.00000
      2      -9.3208      2.00000
      3      -9.1692      2.00000
      4      -9.1189      2.00000
      5      -0.3579      0.00000
      6       0.5208      0.00000
      7       0.6442      0.00000
      8       0.6672      0.00000


--------------------------------------------------------------------------------------------------------


 soft charge-density along one line, spin component           1
         0         1         2         3         4         5         6         7         8         9
 total charge-density along one line
 
 pseudopotential strength for first ion, spin component:           1
 -2.340  -4.031  -0.001  -0.001   0.001
 -4.031  -6.860  -0.003  -0.004   0.002
 -0.001  -0.003  -0.339   0.002  -0.001
 -0.001  -0.004   0.002  -0.337  -0.001
  0.001   0.002  -0.001  -0.001  -0.340
 total augmentation occupancy for first ion, spin component:           1
  3.443  -0.623   0.218   0.308  -0.134
 -0.623   0.126  -0.041  -0.057   0.025
  0.218  -0.041   0.020   0.016  -0.007
  0.308  -0.057   0.016   0.031  -0.010
 -0.134   0.025  -0.007  -0.010   0.012


------------------------ aborting loop because EDIFF is reached ----------------------------------------


    CHARGE:  cpu time    0.0171: real time    0.0172
    FORLOC:  cpu time    0.0111: real time    0.0112
    FORNL :  cpu time    0.0180: real time    0.0181
    STRESS:  cpu time    0.1375: real time    0.1386
    FORCOR:  cpu time    0.1221: real time    0.1243
    FORHAR:  cpu time    0.0381: real time    0.0383
    MIXING:  cpu time    0.0060: real time    0.0061
    OFIELD:  cpu time    0.0001: real time    0.0001

  FORCE on cell =-STRESS in cart. coord.  units (eV):
  Direction    XX          YY          ZZ          XY          YZ          ZX
  --------------------------------------------------------------------------------------
  Alpha Z     0.22682     0.22682     0.22682
  Ewald      43.62798    41.83801    40.55667     0.80912    -0.59882    -1.72701
  Hartree    94.44649    94.31511    93.59449     0.14893    -0.38212    -0.63508
  E(xc)     -26.93373   -26.93950   -26.93461     0.00299    -0.00429    -0.00808
  Local    -196.68312  -195.27200  -193.54667    -0.76621     0.97419     2.10112
  n-local   -15.35453   -15.32613   -15.28506    -0.00825    -0.01439    -0.00043
  augment     0.12350     0.12732     0.13022    -0.00145    -0.00018     0.00172
  Kinetic    99.39049    99.67391    99.44472    -0.14492     0.20652     0.38259
  Fock        0.00000     0.00000     0.00000     0.00000     0.00000     0.00000
  -------------------------------------------------------------------------------------
  Total      -1.15611    -1.35646    -1.81342     0.04021     0.18091     0.11483
  in kB      -1.73428    -2.03483    -2.72032     0.06032     0.27138     0.17226
  external pressure =       -2.16 kB  Pullay stress =        0.00 kB

  kinetic pressure (ideal gas correction) =      0.00 kB
  total pressure  =     -2.16 kB
  Total+kin.    -1.734      -2.035      -2.720       0.060       0.271       0.172

 VOLUME and BASIS-vectors are now :
 -----------------------------------------------------------------------------
  energy-cutoff  :      400.00
  volume of cell :     1068.04
      direct lattice vectors                 reciprocal lattice vectors
    10.202430406  0.000000000  0.000000000     0.098015861 -0.000048433  0.001639604
     0.005035165 10.189908377  0.000000000     0.000000000  0.098136309  0.001165281
    -0.171913697 -0.121987821 10.273430685     0.000000000  0.000000000  0.097338468

  length of vectors
    10.202430406 10.189909621 10.275593092     0.098029586  0.098143227  0.097338468


 FORCES acting on ions
    electron-ion (+dipol)            ewald-force                    non-local-force                 convergence-correction
 -----------------------------------------------------------------------------------------------
   -.171E+02 0.280E+02 0.395E+02   0.185E+02 -.303E+02 -.428E+02   -.172E+01 0.279E+01 0.394E+01   0.809E-04 -.130E-03 -.175E-03
   0.515E+02 -.597E+01 0.315E+01   -.563E+02 0.657E+01 -.351E+01   0.529E+01 -.598E+00 0.303E+00   -.235E-03 0.204E-04 -.122E-04
   -.236E+02 -.459E+02 0.108E+01   0.258E+02 0.501E+02 -.113E+01   -.243E+01 -.467E+01 0.124E+00   0.114E-03 0.202E-03 -.109E-05
   -.108E+02 0.240E+02 -.435E+02   0.116E+02 -.258E+02 0.469E+02   -.104E+01 0.236E+01 -.427E+01   0.533E-04 -.110E-03 0.197E-03
   -.302E+00 0.378E+00 -.419E+00   0.446E+00 -.550E+00 0.531E+00   0.242E+00 -.290E+00 0.155E+00   0.550E-04 -.617E-04 0.280E-04
 -----------------------------------------------------------------------------------------------
   -.342E+00 0.410E+00 -.254E+00   0.178E-14 0.000E+00 0.000E+00   0.342E+00 -.410E+00 0.254E+00   0.685E-04 -.798E-04 0.370E-04
 
 
 POSITION                                       TOTAL-FORCE (eV/Angst)
 -----------------------------------------------------------------------------------
      5.42909      4.10033      3.70659        -0.339560      0.399425      0.637429
      3.95360      4.84054      4.50421         0.424293     -0.002116     -0.054111
      5.56473      5.70422      4.54762        -0.310165     -0.468356      0.081769
      5.29437      4.17808      5.54176        -0.160723      0.532682     -0.932686
      5.05389      4.71382      4.57100         0.385975     -0.461932      0.267561
 -----------------------------------------------------------------------------------
    total drift:                               -0.000179     -0.000297     -0.000038


--------------------------------------------------------------------------------------------------------



  FREE ENERGIE OF THE ION-ELECTRON SYSTEM (eV)
  ---------------------------------------------------
  free  energy   TOTEN  =       -23.98715845 eV

  energy  without entropy=      -23.98715845  energy(sigma->0) =      -23.98715845
 


--------------------------------------------------------------------------------------------------------


    POTLOK:  cpu time    0.1271: real time    0.1284


--------------------------------------------------------------------------------------------------------


 stress matrix after NEB project (eV)
     -1.15611      0.04021      0.11483
      0.04021     -1.35646      0.18091
      0.11483      0.18091     -1.81342
  FORCES: max atom, RMS     1.086041    0.748304
  FORCE total and by dimension    1.673258    0.932686
  Stress total and by dimension    2.561273    1.813422
           RANDOM_SEED =         581355527                0                0
           RANDOM_SEED =         581355527               30                0
   IONSTEP:  cpu time    0.0028: real time    0.0058

  ENERGY OF THE ELECTRON-ION-THERMOSTAT SYSTEM (eV)
  ---------------------------------------------------
% ion-electron   TOTEN  =       -23.987158  see above
  kinetic energy EKIN   =         0.000724
  kin. lattice  EKIN_LAT=         0.000000  (temperature    1.40 K)
  nose potential ES     =         0.000000
  nose kinetic   EPS    =         0.000000
  ---------------------------------------------------
  total energy   ETOTAL =       -23.986434 eV

  maximum distance moved by ions :      0.26E-03

    WAVPRE:  cpu time    0.0381: real time    0.0386
    FEWALD:  cpu time    0.0003: real time    0.0002
    ORTHCH:  cpu time    0.0080: real time    0.0081
     LOOP+:  cpu time    6.7081: real time    6.8758


--------------------------------------- Iteration      2(   1)  ---------------------------------------


    POTLOK:  cpu time    0.1258: real time    0.1276
    SETDIJ:  cpu time    0.0016: real time    0.0016
     EDDAV:  cpu time    0.1781: real time    0.1798
       DOS:  cpu time    0.0002: real time    0.0002
    CHARGE:  cpu time    0.0163: real time    0.0165
    MIXING:  cpu time    0.0038: real time    0.0038
    --------------------------------------------
      LOOP:  cpu time    0.3258: real time    0.3295

 eigenvalue-minimisations  :    96
 total energy-change (2. order) :-0.5666633E-02  (-0.6569106E-03)
 number of electron       8.0000001 magnetization 
 augmentation part        0.1794623 magnetization 

 Broyden mixing:
  rms(total) = 0.45633E-02    rms(broyden)= 0.45610E-02
  rms(prec ) = 0.61039E-02
  weight for this iteration     100.00

 Free energy of the ion-electron system (eV)
  ---------------------------------------------------
  alpha Z        PSCENC =         0.22681710
  Ewald energy   TEWEN  =       126.40964814
  -Hartree energ DENC   =      -282.58539051
  -exchange      EXHF   =         0.00000000
  -V(xc)+E(xc)   XCENC  =        24.49903483
  PAW double counting   =       435.36026078     -436.12895654
  entropy T*S    EENTRO =        -0.00000000
  eigenvalues    EBANDS =       -88.81599320
  atomic energy  EATOM  =       197.04175453
  Solvation  Ediel_sol  =         0.00000000
  ---------------------------------------------------
  free energy    TOTEN  =       -23.99282487 eV

  energy without entropy =      -23.99282487  energy(sigma->0) =      -23.99282487


--------------------------------------------------------------------------------------------------------




--------------------------------------- Iteration      2(   2)  ---------------------------------------


    POTLOK:  cpu time    0.1340: real time    0.1364
    SETDIJ:  cpu time    0.0016: real time    0.0017
    EDDIAG:  cpu time    0.0342: real time    0.0347
  RMM-DIIS:  cpu time    0.1402: real time    0.1415
    ORTHCH:  cpu time    0.0014: real time    0.0014
       DOS:  cpu time    0.0001: real time    0.0001
    CHARGE:  cpu time    0.0161: real time    0.0163
    MIXING:  cpu time    0.0039: real time    0.0039
    --------------------------------------------
      LOOP:  cpu time    0.3317: real time    0.3360

 eigenvalue-minimisations  :    64
 total energy-change (2. order) : 0.6623564E-04  (-0.2040297E-04)
 number of electron       8.0000001 magnetization 
 augmentation part        0.1793520 magnetization 

 Broyden mixing:
  rms(total) = 0.17682E-02    rms(broyden)= 0.17680E-02
  rms(prec ) = 0.21768E-02
  weight for this iteration     100.00

 eigenvalues of (default mixing * dielectric matrix)
  average eigenvalue GAMMA=   1.4790
  1.4790

 Free energy of the ion-electron system (eV)
  ---------------------------------------------------
  alpha Z        PSCENC =         0.22681710
  Ewald energy   TEWEN  =       126.40964814
  -Hartree energ DENC   =      -282.66891184
  -exchange      EXHF   =         0.00000000
  -V(xc)+E(xc)   XCENC  =        24.50345689
  PAW double counting   =       436.31862652     -437.08830571
  entropy T*S    EENTRO =        -0.00000000
  eigenvalues    EBANDS =       -88.73584427
  atomic energy  EATOM  =       197.04175453
  Solvation  Ediel_sol  =         0.00000000
  ---------------------------------------------------
  free energy    TOTEN  =       -23.99275863 eV

  energy without entropy =      -23.99275863  energy(sigma->0) =      -23.99275863


--------------------------------------------------------------------------------------------------------




--------------------------------------- Iteration      2(   3)  ---------------------------------------


    POTLOK:  cpu time    0.1267: real time    0.1278
    SETDIJ:  cpu time    0.0016: real time    0.0017
    EDDIAG:  cpu time    0.0340: real time    0.0343
  RMM-DIIS:  cpu time    0.1386: real time    0.1412
    ORTHCH:  cpu time    0.0014: real time    0.0014
       DOS:  cpu time    0.0002: real time    0.0002
    CHARGE:  cpu time    0.0162: real time    0.0163
    MIXING:  cpu time    0.0040: real time    0.0040
    --------------------------------------------
      LOOP:  cpu time    0.3227: real time    0.3270

 eigenvalue-minimisations  :    64
 total energy-change (2. order) :-0.1566988E-06  (-0.7792415E-05)
 number of electron       8.0000001 magnetization 
 augmentation part        0.1792863 magnetization 

 Broyden mixing:
  rms(total) = 0.83343E-03    rms(broyden)= 0.83281E-03
  rms(prec ) = 0.93063E-03
  weight for this iteration     100.00

 eigenvalues of (default mixing * dielectric matrix)
  average eigenvalue GAMMA=   2.0683
  1.7813  2.3554

 Free energy of the ion-electron system (eV)
  ---------------------------------------------------
  alpha Z        PSCENC =         0.22681710
  Ewald energy   TEWEN  =       126.40964814
  -Hartree energ DENC   =      -282.70642019
  -exchange      EXHF   =         0.00000000
  -V(xc)+E(xc)   XCENC  =        24.50561071
  PAW double counting   =       437.01933544     -437.78946628
  entropy T*S    EENTRO =        -0.00000000
  eigenvalues    EBANDS =       -88.70003824
  atomic energy  EATOM  =       197.04175453
  Solvation  Ediel_sol  =         0.00000000
  ---------------------------------------------------
  free energy    TOTEN  =       -23.99275879 eV

  energy without entropy =      -23.99275879  energy(sigma->0) =      -23.99275879


--------------------------------------------------------------------------------------------------------




--------------------------------------- Iteration      2(   4)  ---------------------------------------


    POTLOK:  cpu time    0.1253: real time    0.1280
    SETDIJ:  cpu time    0.0019: real time    0.0019
    EDDIAG:  cpu time    0.0363: real time    0.0368
  RMM-DIIS:  cpu time    0.1400: real time    0.1459
    ORTHCH:  cpu time    0.0020: real time    0.0041
       DOS:  cpu time    0.0002: real time    0.0002
    CHARGE:  cpu time    0.0166: real time    0.0170
    MIXING:  cpu time    0.0041: real time    0.0042
    --------------------------------------------
      LOOP:  cpu time    0.3263: real time    0.3380

 eigenvalue-minimisations  :    64
 total energy-change (2. order) :-0.1076396E-05  (-0.7473858E-06)
 number of electron       8.0000001 magnetization 
 augmentation part        0.1792925 magnetization 

 Broyden mixing:
  rms(total) = 0.36393E-03    rms(broyden)= 0.36392E-03
  rms(prec ) = 0.48711E-03
  weight for this iteration     100.00

 eigenvalues of (default mixing * dielectric matrix)
  average eigenvalue GAMMA=   1.6182
  2.4683  1.0460  1.3402

 Free energy of the ion-electron system (eV)
  ---------------------------------------------------
  alpha Z        PSCENC =         0.22681710
  Ewald energy   TEWEN  =       126.40964814
  -Hartree energ DENC   =      -282.69032652
  -exchange      EXHF   =         0.00000000
  -V(xc)+E(xc)   XCENC  =        24.50517967
  PAW double counting   =       437.47269994     -438.24260039
  entropy T*S    EENTRO =        -0.00000000
  eigenvalues    EBANDS =       -88.71593233
  atomic energy  EATOM  =       197.04175453
  Solvation  Ediel_sol  =         0.00000000
  ---------------------------------------------------
  free energy    TOTEN  =       -23.99275987 eV

  energy without entropy =      -23.99275987  energy(sigma->0) =      -23.99275987


--------------------------------------------------------------------------------------------------------




--------------------------------------- Iteration      2(   5)  ---------------------------------------


    POTLOK:  cpu time    0.1306: real time    0.1335
    SETDIJ:  cpu time    0.0016: real time    0.0016
    EDDIAG:  cpu time    0.0441: real time    0.0446
  RMM-DIIS:  cpu time    0.1449: real time    0.1460
    ORTHCH:  cpu time    0.0282: real time    0.0283
       DOS:  cpu time    0.0005: real time    0.0005
    --------------------------------------------
      LOOP:  cpu time    0.3498: real time    0.3545

 eigenvalue-minimisations  :    48
 total energy-change (2. order) : 0.3602585E-06  (-0.9349769E-07)
 number of electron       8.0000001 magnetization 
 augmentation part        0.1792925 magnetization 

 Free energy of the ion-electron system (eV)
  ---------------------------------------------------
  alpha Z        PSCENC =         0.22681710
  Ewald energy   TEWEN  =       126.40964814
  -Hartree energ DENC   =      -282.69898870
  -exchange      EXHF   =         0.00000000
  -V(xc)+E(xc)   XCENC  =        24.50559366
  PAW double counting   =       437.50755517     -438.27755971
  entropy T*S    EENTRO =        -0.00000000
  eigenvalues    EBANDS =       -88.70757968
  atomic energy  EATOM  =       197.04175453
  Solvation  Ediel_sol  =         0.00000000
  ---------------------------------------------------
  free energy    TOTEN  =       -23.99275950 eV

  energy without entropy =      -23.99275950  energy(sigma->0) =      -23.99275950


--------------------------------------------------------------------------------------------------------




 average (electrostatic) potential at core
  the test charge radii are     0.5201  0.6991
  (the norm of the test charge is              1.0000)
       1 -41.3427       2 -41.4518       3 -41.4148       4 -41.2757       5 -58.1062
 
 
 
 E-fermi :  -8.1782     XC(G=0):  -0.6916     alpha+bet : -0.1972


 k-point     1 :       0.2500    0.2500    0.2500
  band No.  band energies     occupation 
      1     -16.7254      2.00000
      2      -9.3236      2.00000
      3      -9.1761      2.00000
      4      -9.1288      2.00000
      5      -0.3563      0.00000
      6       0.4943      0.00000
      7       0.6167      0.00000
      8       0.6425      0.00000

 k-point     2 :      -0.2500    0.2500    0.2500
  band No.  band energies     occupation 
      1     -16.7254      2.00000
      2      -9.3235      2.00000
      3      -9.1760      2.00000
      4      -9.1288      2.00000
      5      -0.3591      0.00000
      6       0.4958      0.00000
      7       0.6220      0.00000
      8       0.6515      0.00000

 k-point     3 :       0.2500   -0.2500    0.2500
  band No.  band energies     occupation 
      1     -16.7254      2.00000
      2      -9.3234      2.00000
      3      -9.1761      2.00000
      4      -9.1288      2.00000
      5      -0.3581      0.00000
      6       0.4937      0.00000
      7       0.6191      0.00000
      8       0.6510      0.00000

 k-point     4 :      -0.2500   -0.2500    0.2500
  band No.  band energies     occupation 
      1     -16.7254      2.00000
      2      -9.3235      2.00000
      3      -9.1761      2.00000
      4      -9.1288      2.00000
      5      -0.3611      0.00000
      6       0.5023      0.00000
      7       0.6330      0.00000
      8       0.6540      0.00000


--------------------------------------------------------------------------------------------------------


 soft charge-density along one line, spin component           1
         0         1         2         3         4         5         6         7         8         9
 total charge-density along one line
 
 pseudopotential strength for first ion, spin component:           1
 -2.340  -4.032  -0.001  -0.001   0.001
[...]
      5.54608      5.67900      4.55360         0.150341      0.384740      0.011667
      5.28685      4.20837      5.48976         0.209683     -0.401053      0.763043
      5.05576      4.71154      4.57232        -0.257588      0.313616     -0.211421
 -----------------------------------------------------------------------------------
    total drift:                                0.000136     -0.000009      0.000106


--------------------------------------------------------------------------------------------------------



  FREE ENERGIE OF THE ION-ELECTRON SYSTEM (eV)
  ---------------------------------------------------
  free  energy   TOTEN  =       -24.00851595 eV

  energy  without entropy=      -24.00851595  energy(sigma->0) =      -24.00851595
 
 d Force =-0.1109970E-01[-0.134E-01,-0.878E-02]  d Energy =-0.1108192E-01-0.178E-04
 d Force =-0.1267652E+01[-0.127E+01,-0.126E+01]  d Ewald  =-0.1267632E+01-0.199E-04


--------------------------------------------------------------------------------------------------------


    POTLOK:  cpu time    0.1165: real time    0.1198


--------------------------------------------------------------------------------------------------------


 stress matrix after NEB project (eV)
      0.08955     -0.09968      0.06218
     -0.09968      0.39688     -0.07958
      0.06218     -0.07958      0.72077
  FORCES: max atom, RMS     0.887156    0.578121
  FORCE total and by dimension    1.292718    0.763043
  Stress total and by dimension    0.851657    0.720773
           RANDOM_SEED =         581355527               30                0
   IONSTEP:  cpu time    0.0001: real time    0.0001

  ENERGY OF THE ELECTRON-ION-THERMOSTAT SYSTEM (eV)
  ---------------------------------------------------
% ion-electron   TOTEN  =       -24.008516  see above
  kinetic energy EKIN   =         0.021668
  kin. lattice  EKIN_LAT=         0.000000  (temperature   41.91 K)
  nose potential ES     =         0.000000
  nose kinetic   EPS    =         0.000000
  ---------------------------------------------------
  total energy   ETOTAL =       -23.986848 eV

  maximum distance moved by ions :      0.57E-03

    WAVPRE:  cpu time    0.0425: real time    0.0432
    FEWALD:  cpu time    0.0005: real time    0.0005
    ORTHCH:  cpu time    0.0075: real time    0.0076
 Prediction of Wavefunctions ALPHA= 2.237 BETA=-1.277
     LOOP+:  cpu time    1.6454: real time    1.6813


--------------------------------------- Iteration     10(   1)  ---------------------------------------


    POTLOK:  cpu time    0.1212: real time    0.1258
    SETDIJ:  cpu time    0.0016: real time    0.0016
     EDDAV:  cpu time    0.1779: real time    0.1810
       DOS:  cpu time    0.0002: real time    0.0003
    CHARGE:  cpu time    0.0156: real time    0.0158
    MIXING:  cpu time    0.0037: real time    0.0038
    --------------------------------------------
      LOOP:  cpu time    0.3203: real time    0.3283

 eigenvalue-minimisations  :    96
 total energy-change (2. order) : 0.1116829E-01  (-0.7292464E-04)
 number of electron       8.0000002 magnetization 
 augmentation part        0.1909503 magnetization 

 Broyden mixing:
  rms(total) = 0.54954E-03    rms(broyden)= 0.54869E-03
  rms(prec ) = 0.63738E-03
  weight for this iteration     100.00

 Free energy of the ion-electron system (eV)
  ---------------------------------------------------
  alpha Z        PSCENC =         0.22681710
  Ewald energy   TEWEN  =       136.26066242
  -Hartree energ DENC   =      -291.37123983
  -exchange      EXHF   =         0.00000000
  -V(xc)+E(xc)   XCENC  =        24.96362790
  PAW double counting   =       496.70925103     -497.51395557
  entropy T*S    EENTRO =        -0.00000000
  eigenvalues    EBANDS =       -90.31426450
  atomic energy  EATOM  =       197.04175453
  Solvation  Ediel_sol  =         0.00000000
  ---------------------------------------------------
  free energy    TOTEN  =       -23.99734692 eV

  energy without entropy =      -23.99734692  energy(sigma->0) =      -23.99734692


--------------------------------------------------------------------------------------------------------




--------------------------------------- Iteration     10(   2)  ---------------------------------------


    POTLOK:  cpu time    0.1161: real time    0.1179
    SETDIJ:  cpu time    0.0016: real time    0.0016
    EDDIAG:  cpu time    0.0337: real time    0.0341
  RMM-DIIS:  cpu time    0.1875: real time    0.1905
    ORTHCH:  cpu time    0.0019: real time    0.0019
       DOS:  cpu time    0.0002: real time    0.0002
    CHARGE:  cpu time    0.0158: real time    0.0162
    MIXING:  cpu time    0.0039: real time    0.0039
    --------------------------------------------
      LOOP:  cpu time    0.3606: real time    0.3662

 eigenvalue-minimisations  :    64
 total energy-change (2. order) :-0.1297677E-05  (-0.1590425E-05)
 number of electron       8.0000002 magnetization 
 augmentation part        0.1909745 magnetization 

 Broyden mixing:
  rms(total) = 0.15179E-03    rms(broyden)= 0.15070E-03
  rms(prec ) = 0.18328E-03
  weight for this iteration     100.00

 eigenvalues of (default mixing * dielectric matrix)
  average eigenvalue GAMMA=   0.9947
  0.9947

 Free energy of the ion-electron system (eV)
  ---------------------------------------------------
  alpha Z        PSCENC =         0.22681710
  Ewald energy   TEWEN  =       136.26066242
  -Hartree energ DENC   =      -291.36472122
  -exchange      EXHF   =         0.00000000
  -V(xc)+E(xc)   XCENC  =        24.96327789
  PAW double counting   =       496.76394696     -497.56852894
  entropy T*S    EENTRO =        -0.00000000
  eigenvalues    EBANDS =       -90.32055696
  atomic energy  EATOM  =       197.04175453
  Solvation  Ediel_sol  =         0.00000000
  ---------------------------------------------------
  free energy    TOTEN  =       -23.99734822 eV

  energy without entropy =      -23.99734822  energy(sigma->0) =      -23.99734822


--------------------------------------------------------------------------------------------------------




--------------------------------------- Iteration     10(   3)  ---------------------------------------


    POTLOK:  cpu time    0.1167: real time    0.1185
    SETDIJ:  cpu time    0.0018: real time    0.0018
    EDDIAG:  cpu time    0.0339: real time    0.0344
  RMM-DIIS:  cpu time    0.1087: real time    0.1104
    ORTHCH:  cpu time    0.0013: real time    0.0013
       DOS:  cpu time    0.0002: real time    0.0002
    CHARGE:  cpu time    0.0160: real time    0.0162
    MIXING:  cpu time    0.0041: real time    0.0042
    --------------------------------------------
      LOOP:  cpu time    0.2826: real time    0.2870

 eigenvalue-minimisations  :    48
 total energy-change (2. order) :-0.2609045E-06  (-0.4877100E-07)
 number of electron       8.0000002 magnetization 
 augmentation part        0.1909788 magnetization 

 Broyden mixing:
  rms(total) = 0.77071E-04    rms(broyden)= 0.76923E-04
  rms(prec ) = 0.90115E-04
  weight for this iteration     100.00

 eigenvalues of (default mixing * dielectric matrix)
  average eigenvalue GAMMA=   1.3233
  1.3233  1.3233

 Free energy of the ion-electron system (eV)
  ---------------------------------------------------
  alpha Z        PSCENC =         0.22681710
  Ewald energy   TEWEN  =       136.26066242
  -Hartree energ DENC   =      -291.36317603
  -exchange      EXHF   =         0.00000000
  -V(xc)+E(xc)   XCENC  =        24.96322463
  PAW double counting   =       496.74326037     -497.54781799
  entropy T*S    EENTRO =        -0.00000000
  eigenvalues    EBANDS =       -90.32207351
  atomic energy  EATOM  =       197.04175453
  Solvation  Ediel_sol  =         0.00000000
  ---------------------------------------------------
  free energy    TOTEN  =       -23.99734848 eV

  energy without entropy =      -23.99734848  energy(sigma->0) =      -23.99734848


--------------------------------------------------------------------------------------------------------




--------------------------------------- Iteration     10(   4)  ---------------------------------------


    POTLOK:  cpu time    0.1165: real time    0.1199
    SETDIJ:  cpu time    0.0016: real time    0.0016
    EDDIAG:  cpu time    0.0343: real time    0.0346
  RMM-DIIS:  cpu time    0.1130: real time    0.1140
    ORTHCH:  cpu time    0.0016: real time    0.0016
       DOS:  cpu time    0.0002: real time    0.0002
    --------------------------------------------
      LOOP:  cpu time    0.2670: real time    0.2719

 eigenvalue-minimisations  :    48
 total energy-change (2. order) :-0.1548509E-06  (-0.1527867E-07)
 number of electron       8.0000002 magnetization 
 augmentation part        0.1909788 magnetization 

 Free energy of the ion-electron system (eV)
  ---------------------------------------------------
  alpha Z        PSCENC =         0.22681710
  Ewald energy   TEWEN  =       136.26066242
  -Hartree energ DENC   =      -291.36308766
  -exchange      EXHF   =         0.00000000
  -V(xc)+E(xc)   XCENC  =        24.96324040
  PAW double counting   =       496.72039136     -497.52494571
  entropy T*S    EENTRO =        -0.00000000
  eigenvalues    EBANDS =       -90.32218108
  atomic energy  EATOM  =       197.04175453
  Solvation  Ediel_sol  =         0.00000000
  ---------------------------------------------------
  free energy    TOTEN  =       -23.99734863 eV

  energy without entropy =      -23.99734863  energy(sigma->0) =      -23.99734863


--------------------------------------------------------------------------------------------------------




 average (electrostatic) potential at core
  the test charge radii are     0.5201  0.6991
  (the norm of the test charge is              1.0000)
       1 -41.6581       2 -41.5559       3 -41.5913       4 -41.7301       5 -57.8486
 
 
 
 E-fermi :  -8.3949     XC(G=0):  -0.6325     alpha+bet : -0.1972


 k-point     1 :       0.2500    0.2500    0.2500
  band No.  band energies     occupation 
      1     -17.0444      2.00000
      2      -9.4124      2.00000
      3      -9.3600      2.00000
      4      -9.3443      2.00000
      5      -0.2870      0.00000
      6       0.5584      0.00000
      7       0.6621      0.00000
      8       0.6783      0.00000

 k-point     2 :      -0.2500    0.2500    0.2500
  band No.  band energies     occupation 
      1     -17.0444      2.00000
      2      -9.4125      2.00000
      3      -9.3599      2.00000
      4      -9.3443      2.00000
      5      -0.2900      0.00000
      6       0.5632      0.00000
      7       0.6655      0.00000
      8       0.6871      0.00000

 k-point     3 :       0.2500   -0.2500    0.2500
  band No.  band energies     occupation 
      1     -17.0444      2.00000
      2      -9.4124      2.00000
      3      -9.3600      2.00000
      4      -9.3443      2.00000
      5      -0.2892      0.00000
      6       0.5609      0.00000
      7       0.6632      0.00000
      8       0.6873      0.00000

 k-point     4 :      -0.2500   -0.2500    0.2500
  band No.  band energies     occupation 
      1     -17.0444      2.00000
      2      -9.4124      2.00000
      3      -9.3600      2.00000
      4      -9.3443      2.00000
      5      -0.2922      0.00000
      6       0.5709      0.00000
      7       0.6744      0.00000
      8       0.6890      0.00000


--------------------------------------------------------------------------------------------------------


 soft charge-density along one line, spin component           1
         0         1         2         3         4         5         6         7         8         9
 total charge-density along one line
 
 pseudopotential strength for first ion, spin component:           1
 -2.342  -4.036  -0.001  -0.001   0.001
 -4.036  -6.870  -0.003  -0.005   0.002
 -0.001  -0.003  -0.336   0.002  -0.001
 -0.001  -0.005   0.002  -0.334  -0.001
  0.001   0.002  -0.001  -0.001  -0.337
 total augmentation occupancy for first ion, spin component:           1
  3.628  -0.649   0.250   0.352  -0.149
 -0.649   0.131  -0.046  -0.065   0.027
  0.250  -0.046   0.025   0.020  -0.009
  0.352  -0.065   0.020   0.039  -0.012
 -0.149   0.027  -0.009  -0.012   0.015


------------------------ aborting loop because EDIFF is reached ----------------------------------------


    CHARGE:  cpu time    0.0163: real time    0.0164
    FORLOC:  cpu time    0.0111: real time    0.0111
    FORNL :  cpu time    0.0177: real time    0.0178
    STRESS:  cpu time    0.1332: real time    0.1345
    FORCOR:  cpu time    0.1241: real time    0.1250
    FORHAR:  cpu time    0.0402: real time    0.0407
    MIXING:  cpu time    0.0045: real time    0.0045
    OFIELD:  cpu time    0.0000: real time    0.0000

  FORCE on cell =-STRESS in cart. coord.  units (eV):
  Direction    XX          YY          ZZ          XY          YZ          ZX
  --------------------------------------------------------------------------------------
  Alpha Z     0.22682     0.22682     0.22682
  Ewald      45.49710    45.65286    45.11065     0.04546    -0.45152    -0.51855
  Hartree    97.57393    97.48506    96.30397     0.08250    -0.15781    -0.32588
  E(xc)     -27.44669   -27.45079   -27.45340     0.00154     0.00009    -0.00190
  Local    -201.76257  -201.65130  -199.61103    -0.17336     0.49179     0.80849
  n-local   -16.36222   -16.39763   -16.44275     0.01088     0.01213    -0.00342
  augment     0.10817     0.10590     0.10186     0.00072     0.00139     0.00014
  Kinetic   102.39296   102.61016   102.75724    -0.08009    -0.00794     0.09324
  Fock        0.00000     0.00000     0.00000     0.00000     0.00000     0.00000
  -------------------------------------------------------------------------------------
  Total       0.22750     0.58107     0.99336    -0.11234    -0.11187     0.05213
  in kB       0.34128     0.87167     1.49014    -0.16852    -0.16782     0.07820
  external pressure =        0.90 kB  Pullay stress =        0.00 kB

  kinetic pressure (ideal gas correction) =      0.02 kB
  total pressure  =      0.92 kB
  Total+kin.     0.354       0.883       1.514      -0.167      -0.176       0.069

 VOLUME and BASIS-vectors are now :
 -----------------------------------------------------------------------------
  energy-cutoff  :      400.00
  volume of cell :     1068.04
      direct lattice vectors                 reciprocal lattice vectors
    10.202430406  0.000000000  0.000000000     0.098015861 -0.000048433  0.001639604
     0.005035165 10.189908377  0.000000000     0.000000000  0.098136309  0.001165281
    -0.171913697 -0.121987821 10.273430685     0.000000000  0.000000000  0.097338468

  length of vectors
    10.202430406 10.189909621 10.275593092     0.098029586  0.098143227  0.097338468


 FORCES acting on ions
    electron-ion (+dipol)            ewald-force                    non-local-force                 convergence-correction
 -----------------------------------------------------------------------------------------------
   -.177E+02 0.297E+02 0.418E+02   0.198E+02 -.333E+02 -.470E+02   -.191E+01 0.319E+01 0.449E+01   0.263E-04 -.417E-04 -.506E-04
   0.532E+02 -.650E+01 0.369E+01   -.591E+02 0.724E+01 -.413E+01   0.559E+01 -.677E+00 0.382E+00   -.734E-04 0.134E-04 -.895E-05
   -.243E+02 -.481E+02 0.882E+00   0.271E+02 0.537E+02 -.978E+00   -.258E+01 -.509E+01 0.959E-01   0.388E-04 0.683E-04 0.685E-05
   -.118E+02 0.256E+02 -.468E+02   0.134E+02 -.289E+02 0.528E+02   -.129E+01 0.280E+01 -.511E+01   0.224E-04 -.100E-04 0.311E-04
   0.910E+00 -.109E+01 0.621E+00   -.112E+01 0.135E+01 -.785E+00   -.123E+00 0.150E+00 -.110E+00   0.403E-04 0.344E-04 0.528E-04
 -----------------------------------------------------------------------------------------------
   0.307E+00 -.376E+00 0.245E+00   -.178E-14 -.355E-14 0.000E+00   -.307E+00 0.376E+00 -.245E+00   0.544E-04 0.643E-04 0.312E-04
 
 
 POSITION                                       TOTAL-FORCE (eV/Angst)
 -----------------------------------------------------------------------------------
      5.40598      4.12314      3.74512         0.237500     -0.442100     -0.634022
      3.98039      4.84230      4.49799        -0.358644      0.067896     -0.050221
      5.54360      5.67676      4.55476         0.204599      0.476196     -0.000583
      5.28674      4.21151      5.48482         0.248352     -0.509456      0.958355
      5.05598      4.71128      4.57246        -0.331559      0.407475     -0.273566
 -----------------------------------------------------------------------------------
    total drift:                                0.000248      0.000011     -0.000037


--------------------------------------------------------------------------------------------------------



  FREE ENERGIE OF THE ION-ELECTRON SYSTEM (eV)
  ---------------------------------------------------
  free  energy   TOTEN  =       -23.99734863 eV

  energy  without entropy=      -23.99734863  energy(sigma->0) =      -23.99734863
 
 d Force =-0.1117671E-01[-0.125E-01,-0.985E-02]  d Energy =-0.1116732E-01-0.940E-05
 d Force =-0.9528387E+00[-0.957E+00,-0.949E+00]  d Ewald  =-0.9528312E+00-0.752E-05


--------------------------------------------------------------------------------------------------------


    POTLOK:  cpu time    0.1177: real time    0.1210


--------------------------------------------------------------------------------------------------------


 stress matrix after NEB project (eV)
      0.22750     -0.11234      0.05213
     -0.11234      0.58107     -0.11187
      0.05213     -0.11187      0.99336
  FORCES: max atom, RMS     1.113404    0.727832
  FORCE total and by dimension    1.627482    0.958355
  Stress total and by dimension    1.196605    0.993356
           RANDOM_SEED =         581355527               30                0
   IONSTEP:  cpu time    0.0002: real time    0.0008

  ENERGY OF THE ELECTRON-ION-THERMOSTAT SYSTEM (eV)
  ---------------------------------------------------
% ion-electron   TOTEN  =       -23.997349  see above
  kinetic energy EKIN   =         0.010747
  kin. lattice  EKIN_LAT=         0.000000  (temperature   20.79 K)
  nose potential ES     =         0.000000
  nose kinetic   EPS    =         0.000000
  ---------------------------------------------------
  total energy   ETOTAL =       -23.986601 eV

  maximum distance moved by ions :      0.32E-03


 mean value of Nose-termostat <S>:     1.000 mean value of <T> :    44.719
 mean temperature <T/S>/<1/S>  :    44.719

    WAVPRE:  cpu time    0.0457: real time    0.0465
    FEWALD:  cpu time    0.0003: real time    0.0003
    ORTHCH:  cpu time    0.0075: real time    0.0078
 Prediction of Wavefunctions ALPHA= 2.147 BETA=-1.176
    POTLOK:  cpu time    0.1199: real time    0.1235
    EDDIAG:  cpu time    0.0336: real time    0.0350
     LOOP+:  cpu time    1.9066: real time    1.9428
    4ORBIT:  cpu time    0.0000: real time    0.0006

 total amount of memory used by VASP MPI-rank0    56861. kBytes
=======================================================================

   base      :      30000. kBytes
   nonl-proj :       2877. kBytes
   fftplans  :       8579. kBytes
   grid      :      13527. kBytes
   one-center:          6. kBytes
   wavefun   :       1872. kBytes
 
  
  
 General timing and accounting informations for this job:
 ========================================================
  
                  Total CPU time used (sec):       25.529
                            User time (sec):       23.836
                          System time (sec):        1.693
                         Elapsed time (sec):       26.566
  
                   Maximum memory used (kb):      176460.
                   Average memory used (kb):           0.
  
                          Minor page faults:       253840
                          Major page faults:          178
                 Voluntary context switches:          578
