unknown system                          
           1
    10.202430    0.000000    0.000000
     0.005035   10.189908    0.000000
    -0.171914   -0.121988   10.273431
   H    C 
   4   1
Direct configuration=     1
   0.53801594  0.40671028  0.36079405
   0.39466595  0.48028174  0.43843249
   0.55261218  0.56509012  0.44265872
   0.52781625  0.41647877  0.53942641
   0.50262729  0.46792376  0.44493428
Direct configuration=     2
   0.53793829  0.40680611  0.36094391
   0.39476616  0.48028163  0.43841903
   0.55254008  0.56497956  0.44267796
   0.52777478  0.41660245  0.53920713
   0.50263487  0.46791469  0.44493958
Direct configuration=     3
   0.53778727  0.40699124  0.36123318
   0.39495981  0.48028158  0.43839272
   0.55239926  0.56476642  0.44271585
   0.52769501  0.41684180  0.53878325
   0.50264969  0.46789710  0.44494983
Direct configuration=     4
   0.53757169  0.40725168  0.36164152
   0.39523358  0.48028295  0.43835331
   0.55219817  0.56446668  0.44277126
   0.52758384  0.41718120  0.53818345
   0.50267084  0.46787200  0.44496443
Direct configuration=     5
   0.53730432  0.40756714  0.36213945
   0.39556857  0.48028769  0.43830043
   0.55194890  0.56410325  0.44284257
   0.52745138  0.41759781  0.53744981
   0.50269699  0.46784092  0.44498252
Direct configuration=     6
   0.53700122  0.40791220  0.36268988
   0.39594154  0.48029815  0.43823373
   0.55166648  0.56370445  0.44292772
   0.52731054  0.41806240  0.53663610
   0.50272641  0.46780584  0.44500291
Direct configuration=     7
   0.53668097  0.40825758  0.36325006
   0.39632616  0.48031692  0.43815296
   0.55136802  0.56330246  0.44302424
   0.52717641  0.41854074  0.53580539
   0.50275707  0.46776916  0.44502412
Direct configuration=     8
   0.53636335  0.40857234  0.36377459
   0.39669499  0.48034657  0.43805807
   0.55107158  0.56293085  0.44312938
   0.52706517  0.41899588  0.53502583
   0.50278675  0.46773354  0.44504450
Direct configuration=     9
   0.53606792  0.40882643  0.36421911
   0.39702140  0.48038941  0.43794933
   0.55079482  0.56262201  0.44324021
   0.52699273  0.41939105  0.53436510
   0.50281325  0.46770163  0.44506233
Direct configuration=    10
   0.53581224  0.40899360  0.36454450
   0.39728167  0.48044721  0.43782749
   0.55055360  0.56240428  0.44335378
   0.52697292  0.41969343  0.53388352
   0.50283460  0.46767585  0.44507602
