   5   5   0   0
  0.2054695E+03  0.1019888E-08  0.9999775E-09  0.1008012E-08  0.5000000E-15
  1.000000000000000E-004
  CAR 
 unknown system                          
      2.69833736    -18.94017461  301     -8.26510493      1.00000000
    -18.940  0.0000E+00  0.0000E+00
    -18.868  0.0000E+00  0.0000E+00
    -18.796  0.0000E+00  0.0000E+00
    -18.724  0.0000E+00  0.0000E+00
    -18.652  0.0000E+00  0.0000E+00
    -18.580  0.0000E+00  0.0000E+00
    -18.507  0.0000E+00  0.0000E+00
    -18.435  0.0000E+00  0.0000E+00
    -18.363  0.0000E+00  0.0000E+00
    -18.291  0.0000E+00  0.0000E+00
    -18.219  0.0000E+00  0.0000E+00
    -18.147  0.0000E+00  0.0000E+00
    -18.075  0.1235E-13  0.8882E-15
    -18.003  0.6877E-12  0.5036E-13
    -17.930  0.2961E-10  0.2180E-11
    -17.858  0.9879E-09  0.7324E-10
    -17.786  0.2553E-07  0.1910E-08
    -17.714  0.5112E-06  0.3868E-07
    -17.642  0.7934E-05  0.6093E-06
    -17.570  0.9544E-04  0.7474E-05
    -17.498  0.8903E-03  0.7151E-04
    -17.425  0.6440E-02  0.5347E-03
    -17.353  0.3614E-01  0.3134E-02
    -17.281  0.1574E+00  0.1445E-01
    -17.209  0.5317E+00  0.5270E-01
    -17.137  0.1395E+01  0.1530E+00
    -17.065  0.2840E+01  0.3572E+00
    -16.993  0.4490E+01  0.6801E+00
    -16.921  0.5512E+01  0.1077E+01
    -16.848  0.5254E+01  0.1454E+01
    -16.776  0.3890E+01  0.1734E+01
    -16.704  0.2237E+01  0.1895E+01
    -16.632  0.9986E+00  0.1967E+01
    -16.560  0.3462E+00  0.1992E+01
    -16.488  0.9321E-01  0.1998E+01
    -16.416  0.1948E-01  0.2000E+01
    -16.344  0.3161E-02  0.2000E+01
    -16.271  0.3981E-03  0.2000E+01
    -16.199  0.3891E-04  0.2000E+01
    -16.127  0.2951E-05  0.2000E+01
    -16.055  0.1736E-06  0.2000E+01
    -15.983  0.7925E-08  0.2000E+01
    -15.911  0.2805E-09  0.2000E+01
    -15.839  0.7702E-11  0.2000E+01
    -15.767  0.1634E-12  0.2000E+01
    -15.694  0.2784E-14  0.2000E+01
    -15.622  0.0000E+00  0.2000E+01
    -15.550  0.0000E+00  0.2000E+01
    -15.478  0.0000E+00  0.2000E+01
    -15.406  0.0000E+00  0.2000E+01
    -15.334  0.0000E+00  0.2000E+01
    -15.262  0.0000E+00  0.2000E+01
    -15.189  0.0000E+00  0.2000E+01
    -15.117  0.0000E+00  0.2000E+01
    -15.045  0.0000E+00  0.2000E+01
    -14.973  0.0000E+00  0.2000E+01
    -14.901  0.0000E+00  0.2000E+01
    -14.829  0.0000E+00  0.2000E+01
    -14.757  0.0000E+00  0.2000E+01
    -14.685  0.0000E+00  0.2000E+01
    -14.612  0.0000E+00  0.2000E+01
    -14.540  0.0000E+00  0.2000E+01
    -14.468  0.0000E+00  0.2000E+01
    -14.396  0.0000E+00  0.2000E+01
    -14.324  0.0000E+00  0.2000E+01
    -14.252  0.0000E+00  0.2000E+01
    -14.180  0.0000E+00  0.2000E+01
    -14.108  0.0000E+00  0.2000E+01
    -14.035  0.0000E+00  0.2000E+01
    -13.963  0.0000E+00  0.2000E+01
    -13.891  0.0000E+00  0.2000E+01
    -13.819  0.0000E+00  0.2000E+01
    -13.747  0.0000E+00  0.2000E+01
    -13.675  0.0000E+00  0.2000E+01
    -13.603  0.0000E+00  0.2000E+01
    -13.531  0.0000E+00  0.2000E+01
    -13.458  0.0000E+00  0.2000E+01
    -13.386  0.0000E+00  0.2000E+01
    -13.314  0.0000E+00  0.2000E+01
    -13.242  0.0000E+00  0.2000E+01
    -13.170  0.0000E+00  0.2000E+01
    -13.098  0.0000E+00  0.2000E+01
    -13.026  0.0000E+00  0.2000E+01
    -12.954  0.0000E+00  0.2000E+01
    -12.881  0.0000E+00  0.2000E+01
    -12.809  0.0000E+00  0.2000E+01
    -12.737  0.0000E+00  0.2000E+01
    -12.665  0.0000E+00  0.2000E+01
    -12.593  0.0000E+00  0.2000E+01
    -12.521  0.0000E+00  0.2000E+01
    -12.449  0.0000E+00  0.2000E+01
    -12.376  0.0000E+00  0.2000E+01
    -12.304  0.0000E+00  0.2000E+01
    -12.232  0.0000E+00  0.2000E+01
    -12.160  0.0000E+00  0.2000E+01
    -12.088  0.0000E+00  0.2000E+01
    -12.016  0.0000E+00  0.2000E+01
    -11.944  0.0000E+00  0.2000E+01
    -11.872  0.0000E+00  0.2000E+01
    -11.799  0.0000E+00  0.2000E+01
    -11.727  0.0000E+00  0.2000E+01
    -11.655  0.0000E+00  0.2000E+01
    -11.583  0.0000E+00  0.2000E+01
    -11.511  0.0000E+00  0.2000E+01
    -11.439  0.0000E+00  0.2000E+01
    -11.367  0.0000E+00  0.2000E+01
    -11.295  0.0000E+00  0.2000E+01
    -11.222  0.0000E+00  0.2000E+01
    -11.150  0.0000E+00  0.2000E+01
    -11.078  0.0000E+00  0.2000E+01
    -11.006  0.0000E+00  0.2000E+01
    -10.934  0.0000E+00  0.2000E+01
    -10.862  0.0000E+00  0.2000E+01
    -10.790  0.0000E+00  0.2000E+01
    -10.718  0.0000E+00  0.2000E+01
    -10.645  0.0000E+00  0.2000E+01
    -10.573  0.1044E-13  0.2000E+01
    -10.501  0.5591E-12  0.2000E+01
    -10.429  0.2344E-10  0.2000E+01
    -10.357  0.7647E-09  0.2000E+01
    -10.285  0.1942E-07  0.2000E+01
    -10.213  0.3846E-06  0.2000E+01
    -10.141  0.5943E-05  0.2000E+01
    -10.068  0.7178E-04  0.2000E+01
     -9.996  0.6789E-03  0.2000E+01
     -9.924  0.5042E-02  0.2000E+01
     -9.852  0.2948E-01  0.2003E+01
     -9.780  0.1363E+00  0.2012E+01
     -9.708  0.5005E+00  0.2048E+01
     -9.636  0.1469E+01  0.2154E+01
     -9.563  0.3468E+01  0.2403E+01
     -9.491  0.6643E+01  0.2881E+01
     -9.419  0.1042E+02  0.3630E+01
     -9.347  0.1347E+02  0.4599E+01
     -9.275  0.1446E+02  0.5639E+01
     -9.203  0.1291E+02  0.6568E+01
     -9.131  0.9554E+01  0.7255E+01
     -9.059  0.5821E+01  0.7673E+01
     -8.986  0.2892E+01  0.7881E+01
     -8.914  0.1161E+01  0.7965E+01
     -8.842  0.3727E+00  0.7992E+01
     -8.770  0.9509E-01  0.7998E+01
     -8.698  0.1917E-01  0.8000E+01
     -8.626  0.3039E-02  0.8000E+01
     -8.554  0.3779E-03  0.8000E+01
     -8.482  0.3677E-04  0.8000E+01
     -8.409  0.2794E-05  0.8000E+01
     -8.337  0.1656E-06  0.8000E+01
     -8.265  0.7652E-08  0.8000E+01
     -8.193  0.2753E-09  0.8000E+01
     -8.121  0.7710E-11  0.8000E+01
     -8.049  0.1682E-12  0.8000E+01
     -7.977  0.2166E-14  0.8000E+01
     -7.905  0.0000E+00  0.8000E+01
     -7.832  0.0000E+00  0.8000E+01
     -7.760  0.0000E+00  0.8000E+01
     -7.688  0.0000E+00  0.8000E+01
     -7.616  0.0000E+00  0.8000E+01
     -7.544  0.0000E+00  0.8000E+01
     -7.472  0.0000E+00  0.8000E+01
     -7.400  0.0000E+00  0.8000E+01
     -7.328  0.0000E+00  0.8000E+01
     -7.255  0.0000E+00  0.8000E+01
     -7.183  0.0000E+00  0.8000E+01
     -7.111  0.0000E+00  0.8000E+01
     -7.039  0.0000E+00  0.8000E+01
     -6.967  0.0000E+00  0.8000E+01
     -6.895  0.0000E+00  0.8000E+01
     -6.823  0.0000E+00  0.8000E+01
     -6.750  0.0000E+00  0.8000E+01
     -6.678  0.0000E+00  0.8000E+01
     -6.606  0.0000E+00  0.8000E+01
     -6.534  0.0000E+00  0.8000E+01
     -6.462  0.0000E+00  0.8000E+01
     -6.390  0.0000E+00  0.8000E+01
     -6.318  0.0000E+00  0.8000E+01
     -6.246  0.0000E+00  0.8000E+01
     -6.173  0.0000E+00  0.8000E+01
     -6.101  0.0000E+00  0.8000E+01
     -6.029  0.0000E+00  0.8000E+01
     -5.957  0.0000E+00  0.8000E+01
     -5.885  0.0000E+00  0.8000E+01
     -5.813  0.0000E+00  0.8000E+01
     -5.741  0.0000E+00  0.8000E+01
     -5.669  0.0000E+00  0.8000E+01
     -5.596  0.0000E+00  0.8000E+01
     -5.524  0.0000E+00  0.8000E+01
     -5.452  0.0000E+00  0.8000E+01
     -5.380  0.0000E+00  0.8000E+01
     -5.308  0.0000E+00  0.8000E+01
     -5.236  0.0000E+00  0.8000E+01
     -5.164  0.0000E+00  0.8000E+01
     -5.092  0.0000E+00  0.8000E+01
     -5.019  0.0000E+00  0.8000E+01
     -4.947  0.0000E+00  0.8000E+01
     -4.875  0.0000E+00  0.8000E+01
     -4.803  0.0000E+00  0.8000E+01
     -4.731  0.0000E+00  0.8000E+01
     -4.659  0.0000E+00  0.8000E+01
     -4.587  0.0000E+00  0.8000E+01
     -4.514  0.0000E+00  0.8000E+01
     -4.442  0.0000E+00  0.8000E+01
     -4.370  0.0000E+00  0.8000E+01
     -4.298  0.0000E+00  0.8000E+01
     -4.226  0.0000E+00  0.8000E+01
     -4.154  0.0000E+00  0.8000E+01
     -4.082  0.0000E+00  0.8000E+01
     -4.010  0.0000E+00  0.8000E+01
     -3.937  0.0000E+00  0.8000E+01
     -3.865  0.0000E+00  0.8000E+01
     -3.793  0.0000E+00  0.8000E+01
     -3.721  0.0000E+00  0.8000E+01
     -3.649  0.0000E+00  0.8000E+01
     -3.577  0.0000E+00  0.8000E+01
     -3.505  0.0000E+00  0.8000E+01
     -3.433  0.0000E+00  0.8000E+01
     -3.360  0.0000E+00  0.8000E+01
     -3.288  0.0000E+00  0.8000E+01
     -3.216  0.0000E+00  0.8000E+01
     -3.144  0.0000E+00  0.8000E+01
     -3.072  0.0000E+00  0.8000E+01
     -3.000  0.0000E+00  0.8000E+01
     -2.928  0.0000E+00  0.8000E+01
     -2.856  0.0000E+00  0.8000E+01
     -2.783  0.0000E+00  0.8000E+01
     -2.711  0.0000E+00  0.8000E+01
     -2.639  0.0000E+00  0.8000E+01
     -2.567  0.0000E+00  0.8000E+01
     -2.495  0.0000E+00  0.8000E+01
     -2.423  0.0000E+00  0.8000E+01
     -2.351  0.0000E+00  0.8000E+01
     -2.279  0.0000E+00  0.8000E+01
     -2.206  0.0000E+00  0.8000E+01
     -2.134  0.0000E+00  0.8000E+01
     -2.062  0.0000E+00  0.8000E+01
     -1.990  0.0000E+00  0.8000E+01
     -1.918  0.0000E+00  0.8000E+01
     -1.846  0.0000E+00  0.8000E+01
     -1.774  0.0000E+00  0.8000E+01
     -1.701  0.0000E+00  0.8000E+01
     -1.629  0.0000E+00  0.8000E+01
     -1.557  0.0000E+00  0.8000E+01
     -1.485  0.6569E-14  0.8000E+01
     -1.413  0.3667E-12  0.8000E+01
     -1.341  0.1614E-10  0.8000E+01
     -1.269  0.5515E-09  0.8000E+01
     -1.197  0.1464E-07  0.8000E+01
     -1.124  0.3019E-06  0.8000E+01
     -1.052  0.4839E-05  0.8000E+01
     -0.980  0.6030E-04  0.8000E+01
     -0.908  0.5841E-03  0.8000E+01
     -0.836  0.4400E-02  0.8000E+01
     -0.764  0.2578E-01  0.8002E+01
     -0.692  0.1175E+00  0.8011E+01
     -0.620  0.4166E+00  0.8041E+01
     -0.547  0.1149E+01  0.8123E+01
     -0.475  0.2467E+01  0.8301E+01
     -0.403  0.4121E+01  0.8597E+01
     -0.331  0.5356E+01  0.8982E+01
     -0.259  0.5416E+01  0.9372E+01
     -0.187  0.4261E+01  0.9678E+01
     -0.115  0.2607E+01  0.9866E+01
     -0.043  0.1242E+01  0.9955E+01
      0.030  0.4635E+00  0.9988E+01
      0.102  0.1579E+00  0.1000E+02
      0.174  0.1531E+00  0.1001E+02
      0.246  0.4746E+00  0.1004E+02
      0.318  0.1422E+01  0.1015E+02
      0.390  0.3457E+01  0.1040E+02
      0.462  0.6805E+01  0.1088E+02
      0.534  0.1091E+02  0.1167E+02
      0.607  0.1427E+02  0.1270E+02
      0.679  0.1522E+02  0.1379E+02
      0.751  0.1316E+02  0.1474E+02
      0.823  0.9166E+01  0.1540E+02
      0.895  0.5099E+01  0.1576E+02
      0.967  0.2250E+01  0.1592E+02
      1.039  0.7837E+00  0.1598E+02
      1.112  0.2144E+00  0.1600E+02
      1.184  0.4596E-01  0.1600E+02
      1.256  0.7699E-02  0.1600E+02
      1.328  0.1006E-02  0.1600E+02
      1.400  0.1025E-03  0.1600E+02
      1.472  0.8134E-05  0.1600E+02
      1.544  0.5020E-06  0.1600E+02
      1.616  0.2409E-07  0.1600E+02
      1.689  0.8985E-09  0.1600E+02
      1.761  0.2603E-10  0.1600E+02
      1.833  0.5867E-12  0.1600E+02
      1.905  0.9338E-14  0.1600E+02
      1.977  0.0000E+00  0.1600E+02
      2.049  0.0000E+00  0.1600E+02
      2.121  0.0000E+00  0.1600E+02
      2.193  0.0000E+00  0.1600E+02
      2.266  0.0000E+00  0.1600E+02
      2.338  0.0000E+00  0.1600E+02
      2.410  0.0000E+00  0.1600E+02
      2.482  0.0000E+00  0.1600E+02
      2.554  0.0000E+00  0.1600E+02
      2.626  0.0000E+00  0.1600E+02
      2.698  0.0000E+00  0.1600E+02
      2.69971586    -18.94641674  301     -8.33967084      1.00000000
    -18.946  0.0000E+00  0.0000E+00
    -18.874  0.0000E+00  0.0000E+00
    -18.802  0.0000E+00  0.0000E+00
    -18.730  0.0000E+00  0.0000E+00
    -18.658  0.0000E+00  0.0000E+00
    -18.586  0.0000E+00  0.0000E+00
    -18.513  0.0000E+00  0.0000E+00
    -18.441  0.0000E+00  0.0000E+00
    -18.369  0.0000E+00  0.0000E+00
    -18.297  0.0000E+00  0.0000E+00
    -18.225  0.0000E+00  0.0000E+00
    -18.153  0.0000E+00  0.0000E+00
    -18.081  0.1539E-14  0.1110E-15
    -18.008  0.8055E-13  0.5923E-14
    -17.936  0.3476E-11  0.2567E-12
    -17.864  0.1159E-09  0.8619E-11
    -17.792  0.2989E-08  0.2243E-09
    -17.720  0.5963E-07  0.4527E-08
    -17.648  0.9205E-06  0.7094E-07
    -17.575  0.1100E-04  0.8645E-06
    -17.503  0.1017E-03  0.8204E-05
    -17.431  0.7285E-03  0.6077E-04
    -17.359  0.4041E-02  0.3523E-03
    -17.287  0.1736E-01  0.1605E-02
    -17.215  0.5780E-01  0.5776E-02
    -17.143  0.1491E+00  0.1653E-01
    -17.070  0.2981E+00  0.3804E-01
    -16.998  0.4619E+00  0.7137E-01
    -16.926  0.5547E+00  0.1114E+00
    -16.854  0.5164E+00  0.1487E+00
    -16.782  0.3727E+00  0.1755E+00
    -16.710  0.2084E+00  0.1906E+00
    -16.637  0.9036E-01  0.1971E+00
    -16.565  0.3035E-01  0.1993E+00
    -16.493  0.7901E-02  0.1999E+00
    -16.421  0.1593E-02  0.2000E+00
    -16.349  0.2488E-03  0.2000E+00
    -16.277  0.3009E-04  0.2000E+00
    -16.205  0.2818E-05  0.2000E+00
    -16.132  0.2042E-06  0.2000E+00
    -16.060  0.1146E-07  0.2000E+00
    -15.988  0.4972E-09  0.2000E+00
    -15.916  0.1669E-10  0.2000E+00
    -15.844  0.4335E-12  0.2000E+00
    -15.772  0.8617E-14  0.2000E+00
    -15.699  0.0000E+00  0.2000E+00
    -15.627  0.0000E+00  0.2000E+00
    -15.555  0.0000E+00  0.2000E+00
    -15.483  0.0000E+00  0.2000E+00
    -15.411  0.0000E+00  0.2000E+00
    -15.339  0.0000E+00  0.2000E+00
    -15.267  0.0000E+00  0.2000E+00
    -15.194  0.0000E+00  0.2000E+00
    -15.122  0.0000E+00  0.2000E+00
    -15.050  0.0000E+00  0.2000E+00
    -14.978  0.0000E+00  0.2000E+00
    -14.906  0.0000E+00  0.2000E+00
    -14.834  0.0000E+00  0.2000E+00
    -14.761  0.0000E+00  0.2000E+00
    -14.689  0.0000E+00  0.2000E+00
    -14.617  0.0000E+00  0.2000E+00
    -14.545  0.0000E+00  0.2000E+00
    -14.473  0.0000E+00  0.2000E+00
    -14.401  0.0000E+00  0.2000E+00
    -14.329  0.0000E+00  0.2000E+00
    -14.256  0.0000E+00  0.2000E+00
    -14.184  0.0000E+00  0.2000E+00
    -14.112  0.0000E+00  0.2000E+00
    -14.040  0.0000E+00  0.2000E+00
    -13.968  0.0000E+00  0.2000E+00
    -13.896  0.0000E+00  0.2000E+00
    -13.823  0.0000E+00  0.2000E+00
    -13.751  0.0000E+00  0.2000E+00
    -13.679  0.0000E+00  0.2000E+00
    -13.607  0.0000E+00  0.2000E+00
    -13.535  0.0000E+00  0.2000E+00
    -13.463  0.0000E+00  0.2000E+00
    -13.391  0.0000E+00  0.2000E+00
    -13.318  0.0000E+00  0.2000E+00
    -13.246  0.0000E+00  0.2000E+00
    -13.174  0.0000E+00  0.2000E+00
    -13.102  0.0000E+00  0.2000E+00
    -13.030  0.0000E+00  0.2000E+00
    -12.958  0.0000E+00  0.2000E+00
    -12.885  0.0000E+00  0.2000E+00
    -12.813  0.0000E+00  0.2000E+00
    -12.741  0.0000E+00  0.2000E+00
    -12.669  0.0000E+00  0.2000E+00
    -12.597  0.0000E+00  0.2000E+00
    -12.525  0.0000E+00  0.2000E+00
    -12.453  0.0000E+00  0.2000E+00
    -12.380  0.0000E+00  0.2000E+00
    -12.308  0.0000E+00  0.2000E+00
    -12.236  0.0000E+00  0.2000E+00
    -12.164  0.0000E+00  0.2000E+00
    -12.092  0.0000E+00  0.2000E+00
    -12.020  0.0000E+00  0.2000E+00
    -11.948  0.0000E+00  0.2000E+00
    -11.875  0.0000E+00  0.2000E+00
    -11.803  0.0000E+00  0.2000E+00
    -11.731  0.0000E+00  0.2000E+00
    -11.659  0.0000E+00  0.2000E+00
    -11.587  0.0000E+00  0.2000E+00
    -11.515  0.0000E+00  0.2000E+00
    -11.442  0.0000E+00  0.2000E+00
    -11.370  0.0000E+00  0.2000E+00
    -11.298  0.0000E+00  0.2000E+00
    -11.226  0.0000E+00  0.2000E+00
    -11.154  0.0000E+00  0.2000E+00
    -11.082  0.0000E+00  0.2000E+00
    -11.010  0.0000E+00  0.2000E+00
    -10.937  0.0000E+00  0.2000E+00
    -10.865  0.0000E+00  0.2000E+00
    -10.793  0.0000E+00  0.2000E+00
    -10.721  0.0000E+00  0.2000E+00
    -10.649  0.0000E+00  0.2000E+00
    -10.577  0.0000E+00  0.2000E+00
    -10.504  0.1539E-14  0.2000E+00
    -10.432  0.8628E-13  0.2000E+00
    -10.360  0.3796E-11  0.2000E+00
    -10.288  0.1294E-09  0.2000E+00
    -10.216  0.3422E-08  0.2000E+00
    -10.144  0.7023E-07  0.2000E+00
    -10.072  0.1119E-05  0.2000E+00
     -9.999  0.1387E-04  0.2000E+00
     -9.927  0.1337E-03  0.2000E+00
     -9.855  0.1004E-02  0.2001E+00
     -9.783  0.5880E-02  0.2005E+00
     -9.711  0.2692E-01  0.2024E+00
     -9.639  0.9651E-01  0.2094E+00
     -9.566  0.2715E+00  0.2290E+00
     -9.494  0.6012E+00  0.2724E+00
     -9.422  0.1050E+01  0.3482E+00
     -9.350  0.1452E+01  0.4529E+00
     -9.278  0.1592E+01  0.5678E+00
     -9.206  0.1387E+01  0.6679E+00
     -9.134  0.9613E+00  0.7372E+00
     -9.061  0.5298E+00  0.7755E+00
     -8.989  0.2319E+00  0.7922E+00
     -8.917  0.8044E-01  0.7980E+00
     -8.845  0.2205E-01  0.7996E+00
     -8.773  0.4763E-02  0.7999E+00
     -8.701  0.8082E-03  0.8000E+00
     -8.628  0.1074E-03  0.8000E+00
     -8.556  0.1115E-04  0.8000E+00
     -8.484  0.9028E-06  0.8000E+00
     -8.412  0.5688E-07  0.8000E+00
     -8.340  0.2784E-08  0.8000E+00
     -8.268  0.1058E-09  0.8000E+00
     -8.196  0.3117E-11  0.8000E+00
     -8.123  0.7101E-13  0.8000E+00
     -8.051  0.1231E-14  0.8000E+00
     -7.979  0.0000E+00  0.8000E+00
     -7.907  0.0000E+00  0.8000E+00
     -7.835  0.0000E+00  0.8000E+00
     -7.763  0.0000E+00  0.8000E+00
     -7.690  0.0000E+00  0.8000E+00
     -7.618  0.0000E+00  0.8000E+00
     -7.546  0.0000E+00  0.8000E+00
     -7.474  0.0000E+00  0.8000E+00
     -7.402  0.0000E+00  0.8000E+00
     -7.330  0.0000E+00  0.8000E+00
     -7.258  0.0000E+00  0.8000E+00
     -7.185  0.0000E+00  0.8000E+00
     -7.113  0.0000E+00  0.8000E+00
     -7.041  0.0000E+00  0.8000E+00
     -6.969  0.0000E+00  0.8000E+00
     -6.897  0.0000E+00  0.8000E+00
     -6.825  0.0000E+00  0.8000E+00
     -6.752  0.0000E+00  0.8000E+00
     -6.680  0.0000E+00  0.8000E+00
     -6.608  0.0000E+00  0.8000E+00
     -6.536  0.0000E+00  0.8000E+00
     -6.464  0.0000E+00  0.8000E+00
     -6.392  0.0000E+00  0.8000E+00
     -6.320  0.0000E+00  0.8000E+00
     -6.247  0.0000E+00  0.8000E+00
     -6.175  0.0000E+00  0.8000E+00
     -6.103  0.0000E+00  0.8000E+00
     -6.031  0.0000E+00  0.8000E+00
     -5.959  0.0000E+00  0.8000E+00
     -5.887  0.0000E+00  0.8000E+00
     -5.814  0.0000E+00  0.8000E+00
     -5.742  0.0000E+00  0.8000E+00
     -5.670  0.0000E+00  0.8000E+00
     -5.598  0.0000E+00  0.8000E+00
     -5.526  0.0000E+00  0.8000E+00
     -5.454  0.0000E+00  0.8000E+00
     -5.382  0.0000E+00  0.8000E+00
     -5.309  0.0000E+00  0.8000E+00
     -5.237  0.0000E+00  0.8000E+00
     -5.165  0.0000E+00  0.8000E+00
     -5.093  0.0000E+00  0.8000E+00
     -5.021  0.0000E+00  0.8000E+00
     -4.949  0.0000E+00  0.8000E+00
     -4.876  0.0000E+00  0.8000E+00
     -4.804  0.0000E+00  0.8000E+00
     -4.732  0.0000E+00  0.8000E+00
     -4.660  0.0000E+00  0.8000E+00
     -4.588  0.0000E+00  0.8000E+00
     -4.516  0.0000E+00  0.8000E+00
     -4.444  0.0000E+00  0.8000E+00
     -4.371  0.0000E+00  0.8000E+00
     -4.299  0.0000E+00  0.8000E+00
     -4.227  0.0000E+00  0.8000E+00
     -4.155  0.0000E+00  0.8000E+00
     -4.083  0.0000E+00  0.8000E+00
     -4.011  0.0000E+00  0.8000E+00
     -3.938  0.0000E+00  0.8000E+00
     -3.866  0.0000E+00  0.8000E+00
     -3.794  0.0000E+00  0.8000E+00
     -3.722  0.0000E+00  0.8000E+00
     -3.650  0.0000E+00  0.8000E+00
     -3.578  0.0000E+00  0.8000E+00
     -3.506  0.0000E+00  0.8000E+00
     -3.433  0.0000E+00  0.8000E+00
     -3.361  0.0000E+00  0.8000E+00
     -3.289  0.0000E+00  0.8000E+00
     -3.217  0.0000E+00  0.8000E+00
     -3.145  0.0000E+00  0.8000E+00
     -3.073  0.0000E+00  0.8000E+00
     -3.000  0.0000E+00  0.8000E+00
     -2.928  0.0000E+00  0.8000E+00
     -2.856  0.0000E+00  0.8000E+00
     -2.784  0.0000E+00  0.8000E+00
     -2.712  0.0000E+00  0.8000E+00
     -2.640  0.0000E+00  0.8000E+00
     -2.568  0.0000E+00  0.8000E+00
     -2.495  0.0000E+00  0.8000E+00
     -2.423  0.0000E+00  0.8000E+00
     -2.351  0.0000E+00  0.8000E+00
     -2.279  0.0000E+00  0.8000E+00
     -2.207  0.0000E+00  0.8000E+00
     -2.135  0.0000E+00  0.8000E+00
     -2.062  0.0000E+00  0.8000E+00
     -1.990  0.0000E+00  0.8000E+00
     -1.918  0.0000E+00  0.8000E+00
     -1.846  0.0000E+00  0.8000E+00
     -1.774  0.0000E+00  0.8000E+00
     -1.702  0.0000E+00  0.8000E+00
     -1.630  0.0000E+00  0.8000E+00
     -1.557  0.0000E+00  0.8000E+00
     -1.485  0.1154E-15  0.8000E+00
     -1.413  0.6963E-14  0.8000E+00
     -1.341  0.3506E-12  0.8000E+00
     -1.269  0.1369E-10  0.8000E+00
     -1.197  0.4133E-09  0.8000E+00
     -1.124  0.9653E-08  0.8000E+00
     -1.052  0.1745E-06  0.8000E+00
     -0.980  0.2441E-05  0.8000E+00
     -0.908  0.2643E-04  0.8000E+00
     -0.836  0.2217E-03  0.8000E+00
     -0.764  0.1440E-02  0.8001E+00
     -0.692  0.7243E-02  0.8006E+00
     -0.619  0.2823E-01  0.8027E+00
     -0.547  0.8529E-01  0.8088E+00
     -0.475  0.1997E+00  0.8232E+00
     -0.403  0.3624E+00  0.8494E+00
     -0.331  0.5099E+00  0.8862E+00
     -0.259  0.5562E+00  0.9263E+00
     -0.186  0.4703E+00  0.9602E+00
     -0.114  0.3083E+00  0.9825E+00
     -0.042  0.1567E+00  0.9938E+00
      0.030  0.6213E-01  0.9983E+00
      0.102  0.2136E-01  0.9998E+00
      0.174  0.1652E-01  0.1001E+01
      0.246  0.4650E-01  0.1004E+01
      0.319  0.1376E+00  0.1014E+01
      0.391  0.3324E+00  0.1038E+01
      0.463  0.6522E+00  0.1085E+01
      0.535  0.1048E+01  0.1161E+01
      0.607  0.1385E+01  0.1261E+01
      0.679  0.1504E+01  0.1369E+01
      0.752  0.1332E+01  0.1466E+01
      0.824  0.9527E+00  0.1534E+01
      0.896  0.5448E+00  0.1574E+01
      0.968  0.2469E+00  0.1591E+01
      1.040  0.8814E-01  0.1598E+01
      1.112  0.2466E-01  0.1600E+01
      1.184  0.5391E-02  0.1600E+01
      1.257  0.9188E-03  0.1600E+01
      1.329  0.1219E-03  0.1600E+01
      1.401  0.1258E-04  0.1600E+01
      1.473  0.1008E-05  0.1600E+01
      1.545  0.6278E-07  0.1600E+01
      1.617  0.3033E-08  0.1600E+01
      1.690  0.1136E-09  0.1600E+01
      1.762  0.3302E-11  0.1600E+01
      1.834  0.7447E-13  0.1600E+01
      1.906  0.1231E-14  0.1600E+01
      1.978  0.0000E+00  0.1600E+01
      2.050  0.0000E+00  0.1600E+01
      2.122  0.0000E+00  0.1600E+01
      2.195  0.0000E+00  0.1600E+01
      2.267  0.0000E+00  0.1600E+01
      2.339  0.0000E+00  0.1600E+01
      2.411  0.0000E+00  0.1600E+01
      2.483  0.0000E+00  0.1600E+01
      2.555  0.0000E+00  0.1600E+01
      2.628  0.0000E+00  0.1600E+01
      2.700  0.0000E+00  0.1600E+01
