   5   5   0   0
  0.2040577E+03  0.1024943E-08  0.9769513E-09  0.1019021E-08  0.5000000E-15
  1.000000000000000E-004
  CAR 
 unknown system                          
      2.71376232    -18.93564682  301     -8.25513070      1.00000000
    -18.936  0.0000E+00  0.0000E+00
    -18.863  0.0000E+00  0.0000E+00
    -18.791  0.0000E+00  0.0000E+00
    -18.719  0.0000E+00  0.0000E+00
    -18.647  0.0000E+00  0.0000E+00
    -18.575  0.0000E+00  0.0000E+00
    -18.503  0.0000E+00  0.0000E+00
    -18.430  0.0000E+00  0.0000E+00
    -18.358  0.0000E+00  0.0000E+00
    -18.286  0.0000E+00  0.0000E+00
    -18.214  0.0000E+00  0.0000E+00
    -18.142  0.0000E+00  0.0000E+00
    -18.070  0.1265E-13  0.9104E-15
    -17.998  0.7021E-12  0.5143E-13
    -17.925  0.3023E-10  0.2227E-11
    -17.853  0.1008E-08  0.7480E-10
    -17.781  0.2605E-07  0.1950E-08
    -17.709  0.5214E-06  0.3947E-07
    -17.637  0.8086E-05  0.6213E-06
    -17.565  0.9719E-04  0.7615E-05
    -17.492  0.9055E-03  0.7277E-04
    -17.420  0.6542E-02  0.5435E-03
    -17.348  0.3666E-01  0.3181E-02
    -17.276  0.1593E+00  0.1465E-01
    -17.204  0.5374E+00  0.5331E-01
    -17.132  0.1407E+01  0.1545E+00
    -17.059  0.2858E+01  0.3601E+00
    -16.987  0.4506E+01  0.6843E+00
    -16.915  0.5517E+01  0.1081E+01
    -16.843  0.5244E+01  0.1458E+01
    -16.771  0.3870E+01  0.1737E+01
    -16.699  0.2217E+01  0.1896E+01
    -16.626  0.9863E+00  0.1967E+01
    -16.554  0.3406E+00  0.1992E+01
    -16.482  0.9131E-01  0.1998E+01
    -16.410  0.1900E-01  0.2000E+01
    -16.338  0.3068E-02  0.2000E+01
    -16.266  0.3844E-03  0.2000E+01
    -16.193  0.3737E-04  0.2000E+01
    -16.121  0.2818E-05  0.2000E+01
    -16.049  0.1648E-06  0.2000E+01
    -15.977  0.7474E-08  0.2000E+01
    -15.905  0.2628E-09  0.2000E+01
    -15.833  0.7162E-11  0.2000E+01
    -15.760  0.1521E-12  0.2000E+01
    -15.688  0.1854E-14  0.2000E+01
    -15.616  0.0000E+00  0.2000E+01
    -15.544  0.0000E+00  0.2000E+01
    -15.472  0.0000E+00  0.2000E+01
    -15.400  0.0000E+00  0.2000E+01
    -15.327  0.0000E+00  0.2000E+01
    -15.255  0.0000E+00  0.2000E+01
    -15.183  0.0000E+00  0.2000E+01
    -15.111  0.0000E+00  0.2000E+01
    -15.039  0.0000E+00  0.2000E+01
    -14.967  0.0000E+00  0.2000E+01
    -14.894  0.0000E+00  0.2000E+01
    -14.822  0.0000E+00  0.2000E+01
    -14.750  0.0000E+00  0.2000E+01
    -14.678  0.0000E+00  0.2000E+01
    -14.606  0.0000E+00  0.2000E+01
    -14.534  0.0000E+00  0.2000E+01
    -14.461  0.0000E+00  0.2000E+01
    -14.389  0.0000E+00  0.2000E+01
    -14.317  0.0000E+00  0.2000E+01
    -14.245  0.0000E+00  0.2000E+01
    -14.173  0.0000E+00  0.2000E+01
    -14.101  0.0000E+00  0.2000E+01
    -14.028  0.0000E+00  0.2000E+01
    -13.956  0.0000E+00  0.2000E+01
    -13.884  0.0000E+00  0.2000E+01
    -13.812  0.0000E+00  0.2000E+01
    -13.740  0.0000E+00  0.2000E+01
    -13.668  0.0000E+00  0.2000E+01
    -13.595  0.0000E+00  0.2000E+01
    -13.523  0.0000E+00  0.2000E+01
    -13.451  0.0000E+00  0.2000E+01
    -13.379  0.0000E+00  0.2000E+01
    -13.307  0.0000E+00  0.2000E+01
    -13.235  0.0000E+00  0.2000E+01
    -13.162  0.0000E+00  0.2000E+01
    -13.090  0.0000E+00  0.2000E+01
    -13.018  0.0000E+00  0.2000E+01
    -12.946  0.0000E+00  0.2000E+01
    -12.874  0.0000E+00  0.2000E+01
    -12.802  0.0000E+00  0.2000E+01
    -12.729  0.0000E+00  0.2000E+01
    -12.657  0.0000E+00  0.2000E+01
    -12.585  0.0000E+00  0.2000E+01
    -12.513  0.0000E+00  0.2000E+01
    -12.441  0.0000E+00  0.2000E+01
    -12.369  0.0000E+00  0.2000E+01
    -12.296  0.0000E+00  0.2000E+01
    -12.224  0.0000E+00  0.2000E+01
    -12.152  0.0000E+00  0.2000E+01
    -12.080  0.0000E+00  0.2000E+01
    -12.008  0.0000E+00  0.2000E+01
    -11.936  0.0000E+00  0.2000E+01
    -11.864  0.0000E+00  0.2000E+01
    -11.791  0.0000E+00  0.2000E+01
    -11.719  0.0000E+00  0.2000E+01
    -11.647  0.0000E+00  0.2000E+01
    -11.575  0.0000E+00  0.2000E+01
    -11.503  0.0000E+00  0.2000E+01
    -11.431  0.0000E+00  0.2000E+01
    -11.358  0.0000E+00  0.2000E+01
    -11.286  0.0000E+00  0.2000E+01
    -11.214  0.0000E+00  0.2000E+01
    -11.142  0.0000E+00  0.2000E+01
    -11.070  0.0000E+00  0.2000E+01
    -10.998  0.0000E+00  0.2000E+01
    -10.925  0.0000E+00  0.2000E+01
    -10.853  0.0000E+00  0.2000E+01
    -10.781  0.0000E+00  0.2000E+01
    -10.709  0.0000E+00  0.2000E+01
    -10.637  0.0000E+00  0.2000E+01
    -10.565  0.1232E-14  0.2000E+01
    -10.492  0.1050E-12  0.2000E+01
    -10.420  0.5132E-11  0.2000E+01
    -10.348  0.1955E-09  0.2000E+01
    -10.276  0.5791E-08  0.2000E+01
    -10.204  0.1335E-06  0.2000E+01
    -10.132  0.2396E-05  0.2000E+01
    -10.059  0.3351E-04  0.2000E+01
     -9.987  0.3653E-03  0.2000E+01
     -9.915  0.3106E-02  0.2000E+01
     -9.843  0.2062E-01  0.2002E+01
     -9.771  0.1069E+00  0.2009E+01
     -9.699  0.4340E+00  0.2041E+01
     -9.626  0.1382E+01  0.2140E+01
     -9.554  0.3463E+01  0.2389E+01
     -9.482  0.6869E+01  0.2883E+01
     -9.410  0.1088E+02  0.3666E+01
     -9.338  0.1391E+02  0.4667E+01
     -9.266  0.1456E+02  0.5714E+01
     -9.193  0.1264E+02  0.6624E+01
     -9.121  0.9177E+01  0.7284E+01
     -9.049  0.5557E+01  0.7684E+01
     -8.977  0.2779E+01  0.7884E+01
     -8.905  0.1131E+01  0.7965E+01
     -8.833  0.3694E+00  0.7991E+01
     -8.760  0.9570E-01  0.7998E+01
     -8.688  0.1951E-01  0.8000E+01
     -8.616  0.3114E-02  0.8000E+01
     -8.544  0.3876E-03  0.8000E+01
     -8.472  0.3755E-04  0.8000E+01
     -8.400  0.2826E-05  0.8000E+01
     -8.327  0.1652E-06  0.8000E+01
     -8.255  0.7488E-08  0.8000E+01
     -8.183  0.2633E-09  0.8000E+01
     -8.111  0.7175E-11  0.8000E+01
     -8.039  0.1515E-12  0.8000E+01
     -7.967  0.2085E-14  0.8000E+01
     -7.894  0.0000E+00  0.8000E+01
     -7.822  0.0000E+00  0.8000E+01
     -7.750  0.0000E+00  0.8000E+01
     -7.678  0.0000E+00  0.8000E+01
     -7.606  0.0000E+00  0.8000E+01
     -7.534  0.0000E+00  0.8000E+01
     -7.461  0.0000E+00  0.8000E+01
     -7.389  0.0000E+00  0.8000E+01
     -7.317  0.0000E+00  0.8000E+01
     -7.245  0.0000E+00  0.8000E+01
     -7.173  0.0000E+00  0.8000E+01
     -7.101  0.0000E+00  0.8000E+01
     -7.028  0.0000E+00  0.8000E+01
     -6.956  0.0000E+00  0.8000E+01
     -6.884  0.0000E+00  0.8000E+01
     -6.812  0.0000E+00  0.8000E+01
     -6.740  0.0000E+00  0.8000E+01
     -6.668  0.0000E+00  0.8000E+01
     -6.595  0.0000E+00  0.8000E+01
     -6.523  0.0000E+00  0.8000E+01
     -6.451  0.0000E+00  0.8000E+01
     -6.379  0.0000E+00  0.8000E+01
     -6.307  0.0000E+00  0.8000E+01
     -6.235  0.0000E+00  0.8000E+01
     -6.162  0.0000E+00  0.8000E+01
     -6.090  0.0000E+00  0.8000E+01
     -6.018  0.0000E+00  0.8000E+01
     -5.946  0.0000E+00  0.8000E+01
     -5.874  0.0000E+00  0.8000E+01
     -5.802  0.0000E+00  0.8000E+01
     -5.730  0.0000E+00  0.8000E+01
     -5.657  0.0000E+00  0.8000E+01
     -5.585  0.0000E+00  0.8000E+01
     -5.513  0.0000E+00  0.8000E+01
     -5.441  0.0000E+00  0.8000E+01
     -5.369  0.0000E+00  0.8000E+01
     -5.297  0.0000E+00  0.8000E+01
     -5.224  0.0000E+00  0.8000E+01
     -5.152  0.0000E+00  0.8000E+01
     -5.080  0.0000E+00  0.8000E+01
     -5.008  0.0000E+00  0.8000E+01
     -4.936  0.0000E+00  0.8000E+01
     -4.864  0.0000E+00  0.8000E+01
     -4.791  0.0000E+00  0.8000E+01
     -4.719  0.0000E+00  0.8000E+01
     -4.647  0.0000E+00  0.8000E+01
     -4.575  0.0000E+00  0.8000E+01
     -4.503  0.0000E+00  0.8000E+01
     -4.431  0.0000E+00  0.8000E+01
     -4.358  0.0000E+00  0.8000E+01
     -4.286  0.0000E+00  0.8000E+01
     -4.214  0.0000E+00  0.8000E+01
     -4.142  0.0000E+00  0.8000E+01
     -4.070  0.0000E+00  0.8000E+01
     -3.998  0.0000E+00  0.8000E+01
     -3.925  0.0000E+00  0.8000E+01
     -3.853  0.0000E+00  0.8000E+01
     -3.781  0.0000E+00  0.8000E+01
     -3.709  0.0000E+00  0.8000E+01
     -3.637  0.0000E+00  0.8000E+01
     -3.565  0.0000E+00  0.8000E+01
     -3.492  0.0000E+00  0.8000E+01
     -3.420  0.0000E+00  0.8000E+01
     -3.348  0.0000E+00  0.8000E+01
     -3.276  0.0000E+00  0.8000E+01
     -3.204  0.0000E+00  0.8000E+01
     -3.132  0.0000E+00  0.8000E+01
     -3.059  0.0000E+00  0.8000E+01
     -2.987  0.0000E+00  0.8000E+01
     -2.915  0.0000E+00  0.8000E+01
     -2.843  0.0000E+00  0.8000E+01
     -2.771  0.0000E+00  0.8000E+01
     -2.699  0.0000E+00  0.8000E+01
     -2.626  0.0000E+00  0.8000E+01
     -2.554  0.0000E+00  0.8000E+01
     -2.482  0.0000E+00  0.8000E+01
     -2.410  0.0000E+00  0.8000E+01
     -2.338  0.0000E+00  0.8000E+01
     -2.266  0.0000E+00  0.8000E+01
     -2.193  0.0000E+00  0.8000E+01
     -2.121  0.0000E+00  0.8000E+01
     -2.049  0.0000E+00  0.8000E+01
     -1.977  0.0000E+00  0.8000E+01
     -1.905  0.0000E+00  0.8000E+01
     -1.833  0.0000E+00  0.8000E+01
     -1.760  0.0000E+00  0.8000E+01
     -1.688  0.0000E+00  0.8000E+01
     -1.616  0.0000E+00  0.8000E+01
     -1.544  0.0000E+00  0.8000E+01
     -1.472  0.8922E-14  0.8000E+01
     -1.400  0.4882E-12  0.8000E+01
     -1.327  0.2120E-10  0.8000E+01
     -1.255  0.7144E-09  0.8000E+01
     -1.183  0.1869E-07  0.8000E+01
     -1.111  0.3798E-06  0.8000E+01
     -1.039  0.5993E-05  0.8000E+01
     -0.967  0.7347E-04  0.8000E+01
     -0.894  0.6998E-03  0.8000E+01
     -0.822  0.5179E-02  0.8000E+01
     -0.750  0.2978E-01  0.8003E+01
     -0.678  0.1331E+00  0.8012E+01
     -0.606  0.4626E+00  0.8045E+01
     -0.534  0.1249E+01  0.8135E+01
     -0.461  0.2623E+01  0.8324E+01
     -0.389  0.4281E+01  0.8632E+01
     -0.317  0.5431E+01  0.9023E+01
     -0.245  0.5355E+01  0.9408E+01
     -0.173  0.4104E+01  0.9703E+01
     -0.101  0.2444E+01  0.9879E+01
     -0.028  0.1132E+01  0.9961E+01
      0.044  0.4113E+00  0.9990E+01
      0.116  0.1418E+00  0.1000E+02
      0.188  0.1589E+00  0.1001E+02
      0.260  0.5086E+00  0.1005E+02
      0.332  0.1509E+01  0.1016E+02
      0.404  0.3617E+01  0.1042E+02
      0.477  0.7016E+01  0.1092E+02
      0.549  0.1108E+02  0.1172E+02
      0.621  0.1432E+02  0.1275E+02
      0.693  0.1510E+02  0.1384E+02
      0.765  0.1295E+02  0.1477E+02
      0.837  0.8960E+01  0.1541E+02
      0.910  0.4965E+01  0.1577E+02
      0.982  0.2188E+01  0.1593E+02
      1.054  0.7619E+00  0.1598E+02
      1.126  0.2088E+00  0.1600E+02
      1.198  0.4487E-01  0.1600E+02
      1.270  0.7545E-02  0.1600E+02
      1.343  0.9907E-03  0.1600E+02
      1.415  0.1014E-03  0.1600E+02
      1.487  0.8090E-05  0.1600E+02
      1.559  0.5021E-06  0.1600E+02
      1.631  0.2423E-07  0.1600E+02
      1.703  0.9086E-09  0.1600E+02
      1.776  0.2646E-10  0.1600E+02
      1.848  0.5989E-12  0.1600E+02
      1.920  0.9644E-14  0.1600E+02
      1.992  0.0000E+00  0.1600E+02
      2.064  0.0000E+00  0.1600E+02
      2.136  0.0000E+00  0.1600E+02
      2.209  0.0000E+00  0.1600E+02
      2.281  0.0000E+00  0.1600E+02
      2.353  0.0000E+00  0.1600E+02
      2.425  0.0000E+00  0.1600E+02
      2.497  0.0000E+00  0.1600E+02
      2.569  0.0000E+00  0.1600E+02
      2.642  0.0000E+00  0.1600E+02
      2.714  0.0000E+00  0.1600E+02
      2.70791017    -18.94141136  301     -8.26100893      1.00000000
    -18.941  0.0000E+00  0.0000E+00
    -18.869  0.0000E+00  0.0000E+00
    -18.797  0.0000E+00  0.0000E+00
    -18.725  0.0000E+00  0.0000E+00
    -18.653  0.0000E+00  0.0000E+00
    -18.581  0.0000E+00  0.0000E+00
    -18.508  0.0000E+00  0.0000E+00
    -18.436  0.0000E+00  0.0000E+00
    -18.364  0.0000E+00  0.0000E+00
    -18.292  0.0000E+00  0.0000E+00
    -18.220  0.0000E+00  0.0000E+00
    -18.148  0.0000E+00  0.0000E+00
    -18.075  0.1538E-14  0.1110E-15
    -18.003  0.8127E-13  0.5976E-14
    -17.931  0.3506E-11  0.2590E-12
    -17.859  0.1169E-09  0.8694E-11
    -17.787  0.3014E-08  0.2262E-09
    -17.715  0.6011E-07  0.4564E-08
    -17.642  0.9276E-06  0.7151E-07
    -17.570  0.1108E-04  0.8710E-06
    -17.498  0.1024E-03  0.8262E-05
    -17.426  0.7331E-03  0.6117E-04
    -17.354  0.4064E-02  0.3544E-03
    -17.282  0.1745E-01  0.1614E-02
    -17.209  0.5804E-01  0.5802E-02
    -17.137  0.1496E+00  0.1660E-01
    -17.065  0.2988E+00  0.3816E-01
    -16.993  0.4625E+00  0.7153E-01
    -16.921  0.5549E+00  0.1116E+00
    -16.849  0.5160E+00  0.1488E+00
    -16.776  0.3719E+00  0.1756E+00
    -16.704  0.2077E+00  0.1906E+00
    -16.632  0.8992E-01  0.1971E+00
    -16.560  0.3016E-01  0.1993E+00
    -16.488  0.7840E-02  0.1999E+00
    -16.416  0.1578E-02  0.2000E+00
    -16.343  0.2461E-03  0.2000E+00
    -16.271  0.2971E-04  0.2000E+00
    -16.199  0.2777E-05  0.2000E+00
    -16.127  0.2009E-06  0.2000E+00
    -16.055  0.1125E-07  0.2000E+00
    -15.983  0.4871E-09  0.2000E+00
    -15.911  0.1631E-10  0.2000E+00
    -15.838  0.4225E-12  0.2000E+00
    -15.766  0.8615E-14  0.2000E+00
    -15.694  0.0000E+00  0.2000E+00
    -15.622  0.0000E+00  0.2000E+00
    -15.550  0.0000E+00  0.2000E+00
    -15.478  0.0000E+00  0.2000E+00
    -15.405  0.0000E+00  0.2000E+00
    -15.333  0.0000E+00  0.2000E+00
    -15.261  0.0000E+00  0.2000E+00
    -15.189  0.0000E+00  0.2000E+00
    -15.117  0.0000E+00  0.2000E+00
    -15.045  0.0000E+00  0.2000E+00
    -14.972  0.0000E+00  0.2000E+00
    -14.900  0.0000E+00  0.2000E+00
    -14.828  0.0000E+00  0.2000E+00
    -14.756  0.0000E+00  0.2000E+00
    -14.684  0.0000E+00  0.2000E+00
    -14.612  0.0000E+00  0.2000E+00
    -14.539  0.0000E+00  0.2000E+00
    -14.467  0.0000E+00  0.2000E+00
    -14.395  0.0000E+00  0.2000E+00
    -14.323  0.0000E+00  0.2000E+00
    -14.251  0.0000E+00  0.2000E+00
    -14.179  0.0000E+00  0.2000E+00
    -14.106  0.0000E+00  0.2000E+00
    -14.034  0.0000E+00  0.2000E+00
    -13.962  0.0000E+00  0.2000E+00
    -13.890  0.0000E+00  0.2000E+00
    -13.818  0.0000E+00  0.2000E+00
    -13.746  0.0000E+00  0.2000E+00
    -13.673  0.0000E+00  0.2000E+00
    -13.601  0.0000E+00  0.2000E+00
    -13.529  0.0000E+00  0.2000E+00
    -13.457  0.0000E+00  0.2000E+00
    -13.385  0.0000E+00  0.2000E+00
    -13.313  0.0000E+00  0.2000E+00
    -13.240  0.0000E+00  0.2000E+00
    -13.168  0.0000E+00  0.2000E+00
    -13.096  0.0000E+00  0.2000E+00
    -13.024  0.0000E+00  0.2000E+00
    -12.952  0.0000E+00  0.2000E+00
    -12.880  0.0000E+00  0.2000E+00
    -12.807  0.0000E+00  0.2000E+00
    -12.735  0.0000E+00  0.2000E+00
    -12.663  0.0000E+00  0.2000E+00
    -12.591  0.0000E+00  0.2000E+00
    -12.519  0.0000E+00  0.2000E+00
    -12.447  0.0000E+00  0.2000E+00
    -12.374  0.0000E+00  0.2000E+00
    -12.302  0.0000E+00  0.2000E+00
    -12.230  0.0000E+00  0.2000E+00
    -12.158  0.0000E+00  0.2000E+00
    -12.086  0.0000E+00  0.2000E+00
    -12.014  0.0000E+00  0.2000E+00
    -11.941  0.0000E+00  0.2000E+00
    -11.869  0.0000E+00  0.2000E+00
    -11.797  0.0000E+00  0.2000E+00
    -11.725  0.0000E+00  0.2000E+00
    -11.653  0.0000E+00  0.2000E+00
    -11.581  0.0000E+00  0.2000E+00
    -11.508  0.0000E+00  0.2000E+00
    -11.436  0.0000E+00  0.2000E+00
    -11.364  0.0000E+00  0.2000E+00
    -11.292  0.0000E+00  0.2000E+00
    -11.220  0.0000E+00  0.2000E+00
    -11.148  0.0000E+00  0.2000E+00
    -11.075  0.0000E+00  0.2000E+00
    -11.003  0.0000E+00  0.2000E+00
    -10.931  0.0000E+00  0.2000E+00
    -10.859  0.0000E+00  0.2000E+00
    -10.787  0.0000E+00  0.2000E+00
    -10.715  0.0000E+00  0.2000E+00
    -10.643  0.0000E+00  0.2000E+00
    -10.570  0.4615E-15  0.2000E+00
    -10.498  0.2838E-13  0.2000E+00
    -10.426  0.1315E-11  0.2000E+00
    -10.354  0.4711E-10  0.2000E+00
    -10.282  0.1307E-08  0.2000E+00
    -10.210  0.2808E-07  0.2000E+00
    -10.137  0.4678E-06  0.2000E+00
    -10.065  0.6049E-05  0.2000E+00
     -9.993  0.6077E-04  0.2000E+00
     -9.921  0.4752E-03  0.2000E+00
     -9.849  0.2898E-02  0.2002E+00
     -9.777  0.1383E-01  0.2012E+00
     -9.704  0.5183E-01  0.2050E+00
     -9.632  0.1533E+00  0.2161E+00
     -9.560  0.3607E+00  0.2421E+00
     -9.488  0.6815E+00  0.2913E+00
     -9.416  0.1047E+01  0.3668E+00
     -9.344  0.1326E+01  0.4625E+00
     -9.271  0.1404E+01  0.5638E+00
     -9.199  0.1253E+01  0.6542E+00
     -9.127  0.9421E+00  0.7222E+00
     -9.055  0.5909E+00  0.7648E+00
     -8.983  0.3045E+00  0.7868E+00
     -8.911  0.1270E+00  0.7960E+00
     -8.838  0.4225E-01  0.7990E+00
     -8.766  0.1111E-01  0.7998E+00
     -8.694  0.2294E-02  0.8000E+00
     -8.622  0.3700E-03  0.8000E+00
     -8.550  0.4645E-04  0.8000E+00
     -8.478  0.4532E-05  0.8000E+00
     -8.405  0.3430E-06  0.8000E+00
     -8.333  0.2012E-07  0.8000E+00
     -8.261  0.9139E-09  0.8000E+00
     -8.189  0.3213E-10  0.8000E+00
     -8.117  0.8740E-12  0.8000E+00
     -8.045  0.1815E-13  0.8000E+00
     -7.972  0.3077E-15  0.8000E+00
     -7.900  0.0000E+00  0.8000E+00
     -7.828  0.0000E+00  0.8000E+00
     -7.756  0.0000E+00  0.8000E+00
     -7.684  0.0000E+00  0.8000E+00
     -7.612  0.0000E+00  0.8000E+00
     -7.539  0.0000E+00  0.8000E+00
     -7.467  0.0000E+00  0.8000E+00
     -7.395  0.0000E+00  0.8000E+00
     -7.323  0.0000E+00  0.8000E+00
     -7.251  0.0000E+00  0.8000E+00
     -7.179  0.0000E+00  0.8000E+00
     -7.106  0.0000E+00  0.8000E+00
     -7.034  0.0000E+00  0.8000E+00
     -6.962  0.0000E+00  0.8000E+00
     -6.890  0.0000E+00  0.8000E+00
     -6.818  0.0000E+00  0.8000E+00
     -6.746  0.0000E+00  0.8000E+00
     -6.673  0.0000E+00  0.8000E+00
     -6.601  0.0000E+00  0.8000E+00
     -6.529  0.0000E+00  0.8000E+00
     -6.457  0.0000E+00  0.8000E+00
     -6.385  0.0000E+00  0.8000E+00
     -6.313  0.0000E+00  0.8000E+00
     -6.240  0.0000E+00  0.8000E+00
     -6.168  0.0000E+00  0.8000E+00
     -6.096  0.0000E+00  0.8000E+00
     -6.024  0.0000E+00  0.8000E+00
     -5.952  0.0000E+00  0.8000E+00
     -5.880  0.0000E+00  0.8000E+00
     -5.807  0.0000E+00  0.8000E+00
     -5.735  0.0000E+00  0.8000E+00
     -5.663  0.0000E+00  0.8000E+00
     -5.591  0.0000E+00  0.8000E+00
     -5.519  0.0000E+00  0.8000E+00
     -5.447  0.0000E+00  0.8000E+00
     -5.375  0.0000E+00  0.8000E+00
     -5.302  0.0000E+00  0.8000E+00
     -5.230  0.0000E+00  0.8000E+00
     -5.158  0.0000E+00  0.8000E+00
     -5.086  0.0000E+00  0.8000E+00
     -5.014  0.0000E+00  0.8000E+00
     -4.942  0.0000E+00  0.8000E+00
     -4.869  0.0000E+00  0.8000E+00
     -4.797  0.0000E+00  0.8000E+00
     -4.725  0.0000E+00  0.8000E+00
     -4.653  0.0000E+00  0.8000E+00
     -4.581  0.0000E+00  0.8000E+00
     -4.509  0.0000E+00  0.8000E+00
     -4.436  0.0000E+00  0.8000E+00
     -4.364  0.0000E+00  0.8000E+00
     -4.292  0.0000E+00  0.8000E+00
     -4.220  0.0000E+00  0.8000E+00
     -4.148  0.0000E+00  0.8000E+00
     -4.076  0.0000E+00  0.8000E+00
     -4.003  0.0000E+00  0.8000E+00
     -3.931  0.0000E+00  0.8000E+00
     -3.859  0.0000E+00  0.8000E+00
     -3.787  0.0000E+00  0.8000E+00
     -3.715  0.0000E+00  0.8000E+00
     -3.643  0.0000E+00  0.8000E+00
     -3.570  0.0000E+00  0.8000E+00
     -3.498  0.0000E+00  0.8000E+00
     -3.426  0.0000E+00  0.8000E+00
     -3.354  0.0000E+00  0.8000E+00
     -3.282  0.0000E+00  0.8000E+00
     -3.210  0.0000E+00  0.8000E+00
     -3.137  0.0000E+00  0.8000E+00
     -3.065  0.0000E+00  0.8000E+00
     -2.993  0.0000E+00  0.8000E+00
     -2.921  0.0000E+00  0.8000E+00
     -2.849  0.0000E+00  0.8000E+00
     -2.777  0.0000E+00  0.8000E+00
     -2.704  0.0000E+00  0.8000E+00
     -2.632  0.0000E+00  0.8000E+00
     -2.560  0.0000E+00  0.8000E+00
     -2.488  0.0000E+00  0.8000E+00
     -2.416  0.0000E+00  0.8000E+00
     -2.344  0.0000E+00  0.8000E+00
     -2.271  0.0000E+00  0.8000E+00
     -2.199  0.0000E+00  0.8000E+00
     -2.127  0.0000E+00  0.8000E+00
     -2.055  0.0000E+00  0.8000E+00
     -1.983  0.0000E+00  0.8000E+00
     -1.911  0.0000E+00  0.8000E+00
     -1.838  0.0000E+00  0.8000E+00
     -1.766  0.0000E+00  0.8000E+00
     -1.694  0.0000E+00  0.8000E+00
     -1.622  0.0000E+00  0.8000E+00
     -1.550  0.0000E+00  0.8000E+00
     -1.478  0.1538E-15  0.8000E+00
     -1.405  0.1065E-13  0.8000E+00
     -1.333  0.5247E-12  0.8000E+00
     -1.261  0.1996E-10  0.8000E+00
     -1.189  0.5870E-09  0.8000E+00
     -1.117  0.1336E-07  0.8000E+00
     -1.045  0.2351E-06  0.8000E+00
     -0.972  0.3202E-05  0.8000E+00
     -0.900  0.3375E-04  0.8000E+00
     -0.828  0.2755E-03  0.8000E+00
     -0.756  0.1741E-02  0.8001E+00
     -0.684  0.8523E-02  0.8008E+00
     -0.612  0.3232E-01  0.8031E+00
     -0.539  0.9495E-01  0.8099E+00
     -0.467  0.2162E+00  0.8255E+00
     -0.395  0.3814E+00  0.8531E+00
     -0.323  0.5216E+00  0.8907E+00
     -0.251  0.5529E+00  0.9306E+00
     -0.179  0.4542E+00  0.9634E+00
     -0.107  0.2893E+00  0.9843E+00
     -0.034  0.1428E+00  0.9946E+00
      0.038  0.5497E-01  0.9985E+00
      0.110  0.1852E-01  0.9999E+00
      0.182  0.1515E-01  0.1001E+01
      0.254  0.4473E-01  0.1004E+01
      0.326  0.1350E+00  0.1014E+01
      0.399  0.3305E+00  0.1038E+01
      0.471  0.6549E+00  0.1085E+01
      0.543  0.1058E+01  0.1161E+01
      0.615  0.1398E+01  0.1262E+01
      0.687  0.1512E+01  0.1371E+01
      0.759  0.1330E+01  0.1467E+01
      0.832  0.9443E+00  0.1536E+01
      0.904  0.5361E+00  0.1574E+01
      0.976  0.2415E+00  0.1592E+01
      1.048  0.8580E-01  0.1598E+01
      1.120  0.2392E-01  0.1600E+01
      1.192  0.5219E-02  0.1600E+01
      1.265  0.8886E-03  0.1600E+01
      1.337  0.1179E-03  0.1600E+01
      1.409  0.1217E-04  0.1600E+01
      1.481  0.9766E-06  0.1600E+01
      1.553  0.6087E-07  0.1600E+01
      1.625  0.2946E-08  0.1600E+01
      1.698  0.1106E-09  0.1600E+01
      1.770  0.3218E-11  0.1600E+01
      1.842  0.7269E-13  0.1600E+01
      1.914  0.1231E-14  0.1600E+01
      1.986  0.0000E+00  0.1600E+01
      2.058  0.0000E+00  0.1600E+01
      2.131  0.0000E+00  0.1600E+01
      2.203  0.0000E+00  0.1600E+01
      2.275  0.0000E+00  0.1600E+01
      2.347  0.0000E+00  0.1600E+01
      2.419  0.0000E+00  0.1600E+01
      2.491  0.0000E+00  0.1600E+01
      2.564  0.0000E+00  0.1600E+01
      2.636  0.0000E+00  0.1600E+01
      2.708  0.0000E+00  0.1600E+01
