       N       E                     dE             d eps       ncg     rms          rms(c)
DAV:   1     0.213083885188E+02    0.21308E+02   -0.18169E+03    88   0.397E+02
DAV:   2    -0.195803250981E+02   -0.40889E+02   -0.37440E+02    72   0.106E+02
DAV:   3    -0.269328496956E+02   -0.73525E+01   -0.73525E+01    64   0.500E+01
DAV:   4    -0.274144405046E+02   -0.48159E+00   -0.48159E+00   112   0.132E+01
DAV:   5    -0.274266929454E+02   -0.12252E-01   -0.12252E-01   104   0.135E+00    0.858E+00
RMM:   6    -0.246209825436E+02    0.28057E+01   -0.52061E+00    64   0.139E+01    0.424E+00
RMM:   7    -0.241458930315E+02    0.47509E+00   -0.11460E+00    64   0.617E+00    0.226E+00
RMM:   8    -0.240012324198E+02    0.14466E+00   -0.16301E-01    64   0.287E+00    0.228E-01
RMM:   9    -0.239956285168E+02    0.56039E-02   -0.10925E-02    64   0.691E-01    0.194E-01
RMM:  10    -0.239893852174E+02    0.62433E-02   -0.24762E-02    64   0.855E-01    0.276E-01
RMM:  11    -0.239901022788E+02   -0.71706E-03   -0.84965E-03    64   0.571E-01    0.862E-02
RMM:  12    -0.239994129122E+02   -0.93106E-02   -0.31919E-03    64   0.348E-01    0.119E-01
RMM:  13    -0.240000158156E+02   -0.60290E-03   -0.10387E-03    64   0.177E-01    0.438E-02
RMM:  14    -0.240028431588E+02   -0.28273E-02   -0.11669E-03    64   0.209E-01    0.258E-02
RMM:  15    -0.240031355819E+02   -0.29242E-03   -0.41039E-05    64   0.391E-02    0.145E-02
RMM:  16    -0.240033407568E+02   -0.20517E-03   -0.69019E-05    64   0.480E-02    0.392E-03
RMM:  17    -0.240033875841E+02   -0.46827E-04   -0.19859E-05    64   0.250E-02    0.582E-03
RMM:  18    -0.240033951531E+02   -0.75690E-05   -0.70056E-06    64   0.147E-02    0.980E-04
RMM:  19    -0.240033994468E+02   -0.42937E-05   -0.44799E-07    48   0.488E-03    0.944E-04
RMM:  20    -0.240034002664E+02   -0.81957E-06   -0.14476E-07    48   0.254E-03
    1 T=     1. E= -.24002948E+02 F= -.24003400E+02 E0= -.24003400E+02  EK= 0.45234E-03 SP= 0.00E+00 SK= 0.00E+00
       N       E                     dE             d eps       ncg     rms          rms(c)
DAV:   1    -0.240068666808E+02   -0.34672E-02   -0.37647E-03    96   0.595E-01    0.272E-02
RMM:   2    -0.240068610004E+02    0.56804E-05   -0.97690E-05    64   0.859E-02    0.161E-02
RMM:   3    -0.240068600484E+02    0.95208E-06   -0.20898E-05    64   0.335E-02    0.444E-03
RMM:   4    -0.240068598738E+02    0.17453E-06   -0.70609E-07    48   0.771E-03
    2 T=     7. E= -.24003014E+02 F= -.24006860E+02 E0= -.24006860E+02  EK= 0.38455E-02 SP= 0.00E+00 SK= 0.00E+00
       N       E                     dE             d eps       ncg     rms          rms(c)
DAV:   1    -0.240127334760E+02   -0.58734E-02   -0.30834E-03    64   0.558E-01    0.886E-03
RMM:   2    -0.240127497904E+02   -0.16314E-04   -0.16900E-04    64   0.113E-01    0.333E-03
RMM:   3    -0.240127511445E+02   -0.13541E-05   -0.63450E-06    56   0.221E-02    0.265E-03
RMM:   4    -0.240127516232E+02   -0.47869E-06   -0.10020E-06    48   0.937E-03
    3 T=    19. E= -.24003124E+02 F= -.24012752E+02 E0= -.24012752E+02  EK= 0.96279E-02 SP= 0.00E+00 SK= 0.00E+00
       N       E                     dE             d eps       ncg     rms          rms(c)
DAV:   1    -0.240193453844E+02   -0.65942E-02   -0.10485E-03    64   0.288E-01    0.991E-03
RMM:   2    -0.240193452968E+02    0.87560E-07   -0.35703E-05    64   0.489E-02    0.632E-03
RMM:   3    -0.240193456330E+02   -0.33616E-06   -0.10243E-05    64   0.198E-02    0.190E-03
RMM:   4    -0.240193460235E+02   -0.39048E-06   -0.33447E-07    48   0.494E-03
    4 T=    31. E= -.24003251E+02 F= -.24019346E+02 E0= -.24019346E+02  EK= 0.16095E-01 SP= 0.00E+00 SK= 0.00E+00
       N       E                     dE             d eps       ncg     rms          rms(c)
DAV:   1    -0.240246527474E+02   -0.53071E-02   -0.14152E-03    64   0.331E-01    0.484E-03
RMM:   2    -0.240246564093E+02   -0.36620E-05   -0.10845E-05    64   0.250E-02    0.250E-03
RMM:   3    -0.240246596375E+02   -0.32281E-05   -0.64537E-07    48   0.678E-03    0.127E-03
RMM:   4    -0.240246637675E+02   -0.41300E-05   -0.33651E-07    48   0.368E-03    0.365E-04
RMM:   5    -0.240246669316E+02   -0.31641E-05   -0.16332E-07    44   0.249E-03    0.285E-04
RMM:   6    -0.240246723945E+02   -0.54629E-05   -0.47995E-07    48   0.349E-03    0.210E-04
RMM:   7    -0.240246728871E+02   -0.49261E-06   -0.50981E-08    40   0.164E-03
    5 T=    41. E= -.24003357E+02 F= -.24024673E+02 E0= -.24024673E+02  EK= 0.21316E-01 SP= 0.00E+00 SK= 0.00E+00
       N       E                     dE             d eps       ncg     rms          rms(c)
DAV:   1    -0.240271195100E+02   -0.24471E-02   -0.17009E-03    80   0.347E-01    0.620E-03
RMM:   2    -0.240271204003E+02   -0.89029E-06   -0.84804E-06    64   0.246E-02    0.261E-03
RMM:   3    -0.240271222091E+02   -0.18088E-05   -0.22224E-06    51   0.106E-02    0.792E-04
RMM:   4    -0.240271233381E+02   -0.11291E-05   -0.24912E-07    48   0.452E-03    0.418E-04
RMM:   5    -0.240271249535E+02   -0.16154E-05   -0.13085E-07    48   0.242E-03    0.384E-04
RMM:   6    -0.240271253674E+02   -0.41388E-06   -0.27528E-08    37   0.163E-03
    6 T=    46. E= -.24003407E+02 F= -.24027125E+02 E0= -.24027125E+02  EK= 0.23719E-01 SP= 0.00E+00 SK= 0.00E+00
       N       E                     dE             d eps       ncg     rms          rms(c)
DAV:   1    -0.240259638588E+02    0.11611E-02   -0.16600E-03    64   0.353E-01    0.490E-03
RMM:   2    -0.240259662015E+02   -0.23427E-05   -0.11987E-05    64   0.366E-02    0.286E-03
RMM:   3    -0.240259683647E+02   -0.21632E-05   -0.14914E-06    48   0.886E-03    0.744E-04
RMM:   4    -0.240259699659E+02   -0.16011E-05   -0.38893E-07    48   0.543E-03    0.482E-04
RMM:   5    -0.240259712532E+02   -0.12874E-05   -0.71530E-08    48   0.244E-03    0.275E-04
RMM:   6    -0.240259737598E+02   -0.25066E-05   -0.82888E-09    34   0.156E-03    0.276E-04
RMM:   7    -0.240259740014E+02   -0.24163E-06   -0.37946E-08    38   0.167E-03
    7 T=    44. E= -.24003382E+02 F= -.24025974E+02 E0= -.24025974E+02  EK= 0.22592E-01 SP= 0.00E+00 SK= 0.00E+00
       N       E                     dE             d eps       ncg     rms          rms(c)
DAV:   1    -0.240216571773E+02    0.43166E-02   -0.14061E-03    64   0.328E-01    0.333E-03
RMM:   2    -0.240216584276E+02   -0.12503E-05   -0.13504E-05    63   0.385E-02    0.196E-03
RMM:   3    -0.240216586492E+02   -0.22160E-06   -0.35128E-07    48   0.549E-03    0.126E-03
RMM:   4    -0.240216590343E+02   -0.38514E-06   -0.14546E-07    48   0.341E-03
    8 T=    36. E= -.24003289E+02 F= -.24021659E+02 E0= -.24021659E+02  EK= 0.18370E-01 SP= 0.00E+00 SK= 0.00E+00
       N       E                     dE             d eps       ncg     rms          rms(c)
DAV:   1    -0.240157139230E+02    0.59447E-02   -0.95901E-04    64   0.280E-01    0.416E-03
RMM:   2    -0.240157152031E+02   -0.12801E-05   -0.14161E-05    64   0.445E-02    0.273E-03
RMM:   3    -0.240157154682E+02   -0.26511E-06   -0.53672E-07    48   0.572E-03    0.162E-03
RMM:   4    -0.240157160325E+02   -0.56421E-06   -0.52276E-07    48   0.530E-03
    9 T=    24. E= -.24003152E+02 F= -.24015716E+02 E0= -.24015716E+02  EK= 0.12564E-01 SP= 0.00E+00 SK= 0.00E+00
       N       E                     dE             d eps       ncg     rms          rms(c)
DAV:   1    -0.240103085527E+02    0.54069E-02   -0.47691E-04    80   0.210E-01    0.197E-03
RMM:   2    -0.240103097759E+02   -0.12232E-05   -0.92880E-06    60   0.363E-02    0.250E-03
RMM:   3    -0.240103098174E+02   -0.41495E-07   -0.16580E-07    48   0.361E-03    0.220E-03
RMM:   4    -0.240103106347E+02   -0.81737E-06   -0.72815E-08    43   0.251E-03
   10 T=    14. E= -.24003025E+02 F= -.24010311E+02 E0= -.24010311E+02  EK= 0.72860E-02 SP= 0.00E+00 SK= 0.00E+00
