<?xml version="1.0" encoding="ISO-8859-1"?>
<modeling>
 <generator>
  <i name="program" type="string">vasp </i>
  <i name="version" type="string">5.4.4.18Apr17-6-g9f103f2a35  </i>
  <i name="subversion" type="string">(build Nov 25 2021 15:25:00) complex            parallel </i>
  <i name="platform" type="string">LinuxIFC </i>
  <i name="date" type="string">2022 02 21 </i>
  <i name="time" type="string">10:17:17 </i>
 </generator>
 <incar>
  <i type="string" name="PREC">a</i>
  <i type="string" name="ALGO">Fast</i>
  <i type="int" name="NELM">   120</i>
  <i type="int" name="NELMIN">     4</i>
  <i type="int" name="IBRION">     0</i>
  <i name="EDIFF">      0.00000100</i>
  <i type="int" name="NSW">    10</i>
  <i type="int" name="ISIF">     2</i>
  <i type="int" name="ISYM">     0</i>
  <i name="ENCUT">    400.00000000</i>
  <i name="POTIM">      0.50000000</i>
  <i type="logical" name="LREAL"> F  </i>
  <i type="int" name="ISMEAR">     0</i>
  <i name="SIGMA">      0.20000000</i>
  <i name="KSPACING">      0.50000000</i>
  <i type="logical" name="KGAMMA"> F  </i>
  <i name="PSTRESS">      0.00000000</i>
  <i type="logical" name="LWAVE"> F  </i>
  <i type="logical" name="LCHARG"> F  </i>
  <v type="int" name="KPOINT_BSE">    -1     0     0     0</v>
  <i type="int" name="NELM">   120</i>
 </incar>
 <structure name="primitive_cell" >
  <crystal>
   <varray name="basis" >
    <v>      10.24943435       0.00000000       0.00000000 </v>
    <v>       0.01212352       9.76950516       0.00000000 </v>
    <v>      -0.01890041       0.12368531      10.18944521 </v>
   </varray>
   <i name="volume">   1020.28852638 </i>
   <varray name="rec_basis" >
    <v>       0.09756636      -0.00012108       0.00018245 </v>
    <v>       0.00000000       0.10235933      -0.00124250 </v>
    <v>       0.00000000       0.00000000       0.09814077 </v>
   </varray>
  </crystal>
  <varray name="positions" >
   <v>      -0.46136516       0.40693130       0.36093464 </v>
   <v>      -0.49670793       0.46737838       0.44536279 </v>
   <v>      -0.44787394      -0.43457825       0.44228325 </v>
   <v>      -0.47160293       0.41612764      -0.46116362 </v>
   <v>       0.39429429       0.48105319       0.43796981 </v>
  </varray>
 </structure>
 <varray name="primitive_index" >
  <v type="int" >        1 </v>
  <v type="int" >        5 </v>
  <v type="int" >        3 </v>
  <v type="int" >        4 </v>
  <v type="int" >        2 </v>
 </varray>
 <kpoints>
  <generation param="Monkhorst-Pack">
   <v type="int" name="divisions">       2        2        2 </v>
   <v name="usershift">      0.00000000       0.00000000       0.00000000 </v>
   <v name="genvec1">      0.50000000       0.00000000       0.00000000 </v>
   <v name="genvec2">      0.00000000       0.50000000       0.00000000 </v>
   <v name="genvec3">      0.00000000       0.00000000       0.50000000 </v>
   <v name="shift">      0.50000000       0.50000000       0.50000000 </v>
  </generation>
  <varray name="kpointlist" >
   <v>       0.25000000       0.25000000       0.25000000 </v>
   <v>      -0.25000000       0.25000000       0.25000000 </v>
   <v>       0.25000000      -0.25000000       0.25000000 </v>
   <v>      -0.25000000      -0.25000000       0.25000000 </v>
  </varray>
  <varray name="weights" >
   <v>       0.25000000 </v>
   <v>       0.25000000 </v>
   <v>       0.25000000 </v>
   <v>       0.25000000 </v>
  </varray>
 </kpoints>
 <parameters>
  <separator name="general" >
   <i type="string" name="SYSTEM">unknown system</i>
   <i type="logical" name="LCOMPAT"> F  </i>
  </separator>
  <separator name="electronic" >
   <i type="string" name="PREC">a</i>
   <i name="ENMAX">    400.00000000</i>
   <i name="ENAUG">    644.87300000</i>
   <i name="EDIFF">      0.00000100</i>
   <i type="int" name="IALGO">    68</i>
   <i type="int" name="IWAVPR">    12</i>
   <i type="int" name="NBANDS">     8</i>
   <i name="NELECT">      8.00000000</i>
   <i type="int" name="TURBO">     0</i>
   <i type="int" name="IRESTART">     0</i>
   <i type="int" name="NREBOOT">     0</i>
   <i type="int" name="NMIN">     0</i>
   <i name="EREF">      0.00000000</i>
   <separator name="electronic smearing" >
    <i type="int" name="ISMEAR">     0</i>
    <i name="SIGMA">      0.20000000</i>
    <i name="KSPACING">      0.50000000</i>
    <i type="logical" name="KGAMMA"> F  </i>
   </separator>
   <separator name="electronic projectors" >
    <i type="logical" name="LREAL"> F  </i>
    <v name="ROPT">      0.00000000      0.00000000</v>
    <i type="int" name="LMAXPAW">  -100</i>
    <i type="int" name="LMAXMIX">     2</i>
    <i type="logical" name="NLSPLINE"> F  </i>
   </separator>
   <separator name="electronic startup" >
    <i type="int" name="ISTART">     0</i>
    <i type="int" name="ICHARG">     2</i>
    <i type="int" name="INIWAV">     1</i>
   </separator>
   <separator name="electronic spin" >
    <i type="int" name="ISPIN">     1</i>
    <i type="logical" name="LNONCOLLINEAR"> F  </i>
    <v name="MAGMOM">      1.00000000      1.00000000      1.00000000      1.00000000      1.00000000</v>
    <i name="NUPDOWN">     -1.00000000</i>
    <i type="logical" name="LSORBIT"> F  </i>
    <v name="SAXIS">      0.00000000      0.00000000      1.00000000</v>
    <i type="logical" name="LSPIRAL"> F  </i>
    <v name="QSPIRAL">      0.00000000      0.00000000      0.00000000</v>
    <i type="logical" name="LZEROZ"> F  </i>
   </separator>
   <separator name="electronic exchange-correlation" >
    <i type="logical" name="LASPH"> F  </i>
    <i type="logical" name="LMETAGGA"> F  </i>
   </separator>
   <separator name="electronic convergence" >
    <i type="int" name="NELM">   120</i>
    <i type="int" name="NELMDL">    -5</i>
    <i type="int" name="NELMIN">     4</i>
    <i name="ENINI">    400.00000000</i>
    <separator name="electronic convergence detail" >
     <i type="logical" name="LDIAG"> T  </i>
     <i type="logical" name="LSUBROT"> F  </i>
     <i name="WEIMIN">      0.00100000</i>
     <i name="EBREAK">      0.00000003</i>
     <i name="DEPER">      0.30000000</i>
     <i type="int" name="NRMM">     4</i>
     <i name="TIME">      0.40000000</i>
    </separator>
   </separator>
   <separator name="electronic mixer" >
    <i name="AMIX">      0.40000000</i>
    <i name="BMIX">      1.00000000</i>
    <i name="AMIN">      0.10000000</i>
    <i name="AMIX_MAG">      1.60000000</i>
    <i name="BMIX_MAG">      1.00000000</i>
    <separator name="electronic mixer details" >
     <i type="int" name="IMIX">     4</i>
     <i type="logical" name="MIXFIRST"> F  </i>
     <i type="int" name="MAXMIX">   -45</i>
     <i name="WC">    100.00000000</i>
     <i type="int" name="INIMIX">     1</i>
     <i type="int" name="MIXPRE">     1</i>
     <i type="int" name="MREMOVE">     5</i>
    </separator>
   </separator>
   <separator name="electronic dipolcorrection" >
    <i type="logical" name="LDIPOL"> F  </i>
    <i type="logical" name="LMONO"> F  </i>
    <i type="int" name="IDIPOL">     0</i>
    <i name="EPSILON">      1.00000000</i>
    <v name="DIPOL">   -100.00000000   -100.00000000   -100.00000000</v>
    <i name="EFIELD">      0.00000000</i>
   </separator>
  </separator>
  <separator name="grids" >
   <i type="int" name="NGX">    70</i>
   <i type="int" name="NGY">    64</i>
   <i type="int" name="NGZ">    70</i>
   <i type="int" name="NGXF">   140</i>
   <i type="int" name="NGYF">   128</i>
   <i type="int" name="NGZF">   140</i>
   <i type="logical" name="ADDGRID"> F  </i>
  </separator>
  <separator name="ionic" >
   <i type="int" name="NSW">    10</i>
   <i type="int" name="IBRION">     0</i>
   <i type="int" name="MDALGO">     0</i>
   <i type="int" name="ISIF">     2</i>
   <i name="PSTRESS">      0.00000000</i>
   <i name="EDIFFG">      0.00001000</i>
   <i type="int" name="NFREE">     0</i>
   <i name="POTIM">      0.50000000</i>
   <i name="SMASS">     -3.00000000</i>
   <i name="SCALEE">      1.00000000</i>
  </separator>
  <separator name="ionic md" >
   <i name="TEBEG">      0.00010000</i>
   <i name="TEEND">      0.00010000</i>
   <i type="int" name="NBLOCK">     1</i>
   <i type="int" name="KBLOCK">    10</i>
   <i type="int" name="NPACO">   256</i>
   <i name="APACO">     16.00000000</i>
  </separator>
  <separator name="symmetry" >
   <i type="int" name="ISYM">     0</i>
   <i name="SYMPREC">      0.00001000</i>
  </separator>
  <separator name="dos" >
   <i type="int" name="LORBIT">     0</i>
   <v name="RWIGS">     -1.00000000     -1.00000000</v>
   <i type="int" name="NEDOS">   301</i>
   <i name="EMIN">     10.00000000</i>
   <i name="EMAX">    -10.00000000</i>
   <i name="EFERMI">      0.00000000</i>
  </separator>
  <separator name="writing" >
   <i type="int" name="NWRITE">     2</i>
   <i type="logical" name="LWAVE"> F  </i>
   <i type="logical" name="LDOWNSAMPLE"> F  </i>
   <i type="logical" name="LCHARG"> F  </i>
   <i type="logical" name="LPARD"> F  </i>
   <i type="logical" name="LVTOT"> F  </i>
   <i type="logical" name="LVHAR"> F  </i>
   <i type="logical" name="LELF"> F  </i>
   <i type="logical" name="LOPTICS"> F  </i>
   <v name="STM">      0.00000000      0.00000000      0.00000000      0.00000000      0.00000000      0.00000000      0.00000000</v>
  </separator>
  <separator name="performance" >
   <i type="int" name="NPAR">     4</i>
   <i type="int" name="NSIM">     4</i>
   <i type="int" name="NBLK">    -1</i>
   <i type="logical" name="LPLANE"> T  </i>
   <i type="logical" name="LSCALAPACK"> T  </i>
   <i type="logical" name="LSCAAWARE"> F  </i>
   <i type="logical" name="LSCALU"> F  </i>
   <i type="logical" name="LASYNC"> F  </i>
   <i type="logical" name="LORBITALREAL"> F  </i>
  </separator>
  <separator name="miscellaneous" >
   <i type="int" name="IDIOT">     3</i>
   <i type="int" name="ISPECIAL">     0</i>
   <i type="logical" name="LMUSIC"> F  </i>
   <v name="POMASS">      1.00000000     12.01100000</v>
   <v name="DARWINR">      0.00000000      0.00000000</v>
   <v name="DARWINV">      1.00000000      1.00000000</v>
   <i type="logical" name="LCORR"> T  </i>
  </separator>
  <i type="logical" name="GGA_COMPAT"> T  </i>
  <i type="logical" name="LBERRY"> F  </i>
  <i type="int" name="ICORELEVEL">     0</i>
  <i type="logical" name="LDAU"> F  </i>
  <i type="int" name="I_CONSTRAINED_M">     0</i>
  <separator name="electronic exchange-correlation" >
   <i type="string" name="GGA">--</i>
   <i type="int" name="VOSKOWN">     0</i>
   <i type="logical" name="LHFCALC"> F  </i>
   <i type="string" name="PRECFOCK"></i>
   <i type="logical" name="LSYMGRAD"> F  </i>
   <i type="logical" name="LHFONE"> F  </i>
   <i type="logical" name="LRHFCALC"> F  </i>
   <i type="logical" name="LTHOMAS"> F  </i>
   <i type="logical" name="LMODELHF"> F  </i>
   <i name="ENCUT4O">     -1.00000000</i>
   <i type="int" name="EXXOEP">     0</i>
   <i type="int" name="FOURORBIT">     0</i>
   <i name="AEXX">      0.00000000</i>
   <i name="HFALPHA">      0.00000000</i>
   <i name="MCALPHA">      0.00000000</i>
   <i name="ALDAX">      1.00000000</i>
   <i name="AGGAX">      1.00000000</i>
   <i name="ALDAC">      1.00000000</i>
   <i name="AGGAC">      1.00000000</i>
   <i type="int" name="NKREDX">     1</i>
   <i type="int" name="NKREDY">     1</i>
   <i type="int" name="NKREDZ">     1</i>
   <i type="logical" name="SHIFTRED"> F  </i>
   <i type="logical" name="ODDONLY"> F  </i>
   <i type="logical" name="EVENONLY"> F  </i>
   <i type="int" name="LMAXFOCK">     0</i>
   <i type="int" name="NMAXFOCKAE">     0</i>
   <i type="logical" name="LFOCKAEDFT"> F  </i>
   <i name="HFSCREEN">      0.00000000</i>
   <i name="HFSCREENC">      0.00000000</i>
   <i type="int" name="NBANDSGWLOW">     0</i>
  </separator>
  <separator name="vdW DFT" >
   <i type="logical" name="LUSE_VDW"> F  </i>
   <i name="Zab_VDW">     -0.84910000</i>
   <i name="PARAM1">      0.12340000</i>
   <i name="PARAM2">      1.00000000</i>
   <i name="PARAM3">      0.00000000</i>
  </separator>
  <separator name="model GW" >
   <i type="int" name="MODEL_GW">     0</i>
   <i name="MODEL_EPS0">    122.43462317</i>
   <i name="MODEL_ALPHA">      1.00000000</i>
  </separator>
  <separator name="linear response parameters" >
   <i type="logical" name="LEPSILON"> F  </i>
   <i type="logical" name="LRPA"> F  </i>
   <i type="logical" name="LNABLA"> F  </i>
   <i type="logical" name="LVEL"> F  </i>
   <i type="int" name="KINTER">     0</i>
   <i name="CSHIFT">      0.10000000</i>
   <i name="OMEGAMAX">     -1.00000000</i>
   <i name="DEG_THRESHOLD">      0.00200000</i>
   <i name="RTIME">     -0.10000000</i>
   <i name="WPLASMAI">      0.00000000</i>
   <v name="DFIELD">      0.00000000      0.00000000      0.00000000</v>
   <v name="WPLASMA">      0.00000000      0.00000000      0.00000000      0.00000000      0.00000000      0.00000000      0.00000000      0.00000000      0.00000000</v>
  </separator>
  <separator name="orbital magnetization" >
   <i type="logical" name="NUCIND"> F  </i>
   <v name="MAGPOS">      0.00000000      0.00000000      0.00000000</v>
   <i type="logical" name="LNICSALL"> T  </i>
   <i type="logical" name="ORBITALMAG"> F  </i>
   <i type="logical" name="LMAGBLOCH"> F  </i>
   <i type="logical" name="LCHIMAG"> F  </i>
   <i type="logical" name="LGAUGE"> T  </i>
   <i type="int" name="MAGATOM">     0</i>
   <v name="MAGDIPOL">      0.00000000      0.00000000      0.00000000</v>
   <v name="AVECCONST">      0.00000000      0.00000000      0.00000000</v>
  </separator>
  <separator name="response functions" >
   <i type="logical" name="LADDER"> F  </i>
   <i type="logical" name="LRPAFORCE"> F  </i>
   <i type="logical" name="LFXC"> F  </i>
   <i type="logical" name="LHARTREE"> T  </i>
   <i type="int" name="IBSE">     0</i>
   <v type="int" name="KPOINT">    -1     0     0     0</v>
   <i type="logical" name="LTCTE"> F  </i>
   <i type="logical" name="LTETE"> F  </i>
   <i type="logical" name="LTRIPLET"> F  </i>
   <i type="logical" name="LFXCEPS"> F  </i>
   <i type="logical" name="LFXHEG"> F  </i>
   <i type="int" name="NATURALO">     2</i>
   <i type="logical" name="L2ORDER"> F  </i>
   <i type="logical" name="LMP2LT"> F  </i>
   <i type="logical" name="LUSEW"> F  </i>
   <i name="ENCUTGW">     -2.00000000</i>
   <i name="ENCUTGWSOFT">     -2.00000000</i>
   <i name="ENCUTLF">     -1.00000000</i>
   <i type="int" name="LMAXMP2">    -1</i>
   <i name="SCISSOR">      0.00000000</i>
   <i type="int" name="NOMEGA">     0</i>
   <i type="int" name="NOMEGAR">     0</i>
   <i type="int" name="NBANDSGW">    -1</i>
   <i type="int" name="NBANDSO">    -1</i>
   <i type="int" name="NBANDSV">    -1</i>
   <i type="int" name="NELM">   120</i>
   <i type="int" name="NELMHF">     1</i>
   <i type="int" name="DIM">     3</i>
   <i type="int" name="ANTIRES">     0</i>
   <i name="OMEGAMAX">    -30.00000000</i>
   <i name="OMEGAMIN">    -30.00000000</i>
   <i name="OMEGATL">   -200.00000000</i>
   <i type="int" name="OMEGAGRID">   140</i>
   <i name="CSHIFT">     -0.10000000</i>
   <i type="logical" name="SELFENERGY"> F  </i>
   <i type="logical" name="LSPECTRAL"> F  </i>
   <i type="logical" name="LSPECTRALGW"> F  </i>
   <i type="logical" name="LSINGLES"> F  </i>
   <i type="logical" name="LFERMIGW"> F  </i>
   <i type="logical" name="ODDONLYGW"> F  </i>
   <i type="logical" name="EVENONLYGW"> F  </i>
   <i type="int" name="NKREDLFX">     1</i>
   <i type="int" name="NKREDLFY">     1</i>
   <i type="int" name="NKREDLFZ">     1</i>
   <i type="int" name="MAXMEM">  2800</i>
   <i type="int" name="TELESCOPE">     0</i>
   <i type="int" name="TAUPAR">     1</i>
   <i type="int" name="OMEGAPAR">    -1</i>
   <i name="LAMBDA">      1.00000000</i>
  </separator>
  <separator name="External order field" >
   <i name="OFIELD_KAPPA">      0.00000000</i>
   <v name="OFIELD_K">      0.00000000      0.00000000      0.00000000</v>
   <i name="OFIELD_Q6_NEAR">      0.00000000</i>
   <i name="OFIELD_Q6_FAR">      0.00000000</i>
   <i name="OFIELD_A">      0.00000000</i>
  </separator>
 </parameters>
 <atominfo>
  <atoms>       5 </atoms>
  <types>       2 </types>
  <array name="atoms" >
   <dimension dim="1">ion</dimension>
   <field type="string">element</field>
   <field type="int">atomtype</field>
   <set>
    <rc><c>H </c><c>   1</c></rc>
    <rc><c>H </c><c>   1</c></rc>
    <rc><c>H </c><c>   1</c></rc>
    <rc><c>H </c><c>   1</c></rc>
    <rc><c>C </c><c>   2</c></rc>
   </set>
  </array>
  <array name="atomtypes" >
   <dimension dim="1">type</dimension>
   <field type="int">atomspertype</field>
   <field type="string">element</field>
   <field>mass</field>
   <field>valence</field>
   <field type="string">pseudopotential</field>
   <set>
    <rc><c>   4</c><c>H </c><c>      1.00000000</c><c>      1.00000000</c><c>  PAW_PBE H 15Jun2001                   </c></rc>
    <rc><c>   1</c><c>C </c><c>     12.01100000</c><c>      4.00000000</c><c>  PAW_PBE C 08Apr2002                   </c></rc>
   </set>
  </array>
 </atominfo>
 <structure name="initialpos" >
  <crystal>
   <varray name="basis" >
    <v>      10.24943435       0.00000000       0.00000000 </v>
    <v>       0.01212352       9.76950516       0.00000000 </v>
    <v>      -0.01890041       0.12368531      10.18944521 </v>
   </varray>
   <i name="volume">   1020.28852638 </i>
   <varray name="rec_basis" >
    <v>       0.09756636      -0.00012108       0.00018245 </v>
    <v>       0.00000000       0.10235933      -0.00124250 </v>
    <v>       0.00000000       0.00000000       0.09814077 </v>
   </varray>
  </crystal>
  <varray name="positions" >
   <v>       0.53863484       0.40693130       0.36093464 </v>
   <v>       0.39429429       0.48105319       0.43796981 </v>
   <v>       0.55212606       0.56542175       0.44228325 </v>
   <v>       0.52839707       0.41612764       0.53883638 </v>
   <v>       0.50329207       0.46737838       0.44536279 </v>
  </varray>
  <varray name="velocities" >
   <v>      -0.00000010      -0.00000053       0.00000045 </v>
   <v>       0.00000071      -0.00000029      -0.00000053 </v>
   <v>       0.00000058      -0.00000021      -0.00000003 </v>
   <v>       0.00000014       0.00000009      -0.00000064 </v>
   <v>      -0.00000011       0.00000008       0.00000006 </v>
  </varray>
 </structure>
 <calculation>
  <scstep>
   <time name="dav">    0.17    0.20</time>
   <time name="total">    0.34    0.38</time>
   <energy>
    <i name="alphaZ">      0.23743361 </i>
    <i name="ewald">    127.83093664 </i>
    <i name="hartreedc">   -243.92319832 </i>
    <i name="XCdc">     21.96570679 </i>
    <i name="pawpsdc">    117.05815612 </i>
    <i name="pawaedc">   -117.66307307 </i>
    <i name="eentropy">     -0.08035548 </i>
    <i name="bandstr">    -81.15897232 </i>
    <i name="atom">    197.04175453 </i>
    <i name="e_fr_energy">     21.30838852 </i>
    <i name="e_wo_entrp">     21.38874400 </i>
    <i name="e_0_energy">     21.34856626 </i>
   </energy>
  </scstep>
  <scstep>
   <time name="dav">    0.15    0.15</time>
   <time name="total">    0.15    0.15</time>
   <energy>
    <i name="e_fr_energy">    -19.58032510 </i>
    <i name="e_wo_entrp">    -19.58032510 </i>
    <i name="e_0_energy">    -19.58032510 </i>
   </energy>
  </scstep>
  <scstep>
   <time name="dav">    0.14    0.14</time>
   <time name="total">    0.14    0.14</time>
   <energy>
    <i name="e_fr_energy">    -26.93284970 </i>
    <i name="e_wo_entrp">    -26.93284970 </i>
    <i name="e_0_energy">    -26.93284970 </i>
   </energy>
  </scstep>
  <scstep>
   <time name="dav">    0.20    0.21</time>
   <time name="total">    0.20    0.21</time>
   <energy>
    <i name="e_fr_energy">    -27.41444050 </i>
    <i name="e_wo_entrp">    -27.41444050 </i>
    <i name="e_0_energy">    -27.41444050 </i>
   </energy>
  </scstep>
  <scstep>
   <time name="dav">    0.19    0.20</time>
   <time name="total">    0.22    0.22</time>
   <energy>
    <i name="e_fr_energy">    -27.42669295 </i>
    <i name="e_wo_entrp">    -27.42669295 </i>
    <i name="e_0_energy">    -27.42669295 </i>
   </energy>
  </scstep>
  <scstep>
   <time name="diag">    0.04    0.06</time>
   <time name="diis">    0.15    0.15</time>
   <time name="orth">    0.00    0.00</time>
   <time name="total">    0.36    0.38</time>
   <energy>
    <i name="e_fr_energy">    -24.62098254 </i>
    <i name="e_wo_entrp">    -24.62098254 </i>
    <i name="e_0_energy">    -24.62098254 </i>
   </energy>
  </scstep>
  <scstep>
   <time name="diag">    0.03    0.04</time>
   <time name="diis">    0.14    0.14</time>
   <time name="orth">    0.00    0.00</time>
   <time name="total">    0.33    0.34</time>
   <energy>
    <i name="e_fr_energy">    -24.14589303 </i>
    <i name="e_wo_entrp">    -24.14589303 </i>
    <i name="e_0_energy">    -24.14589303 </i>
   </energy>
  </scstep>
  <scstep>
   <time name="diag">    0.03    0.04</time>
   <time name="diis">    0.14    0.14</time>
   <time name="orth">    0.00    0.00</time>
   <time name="total">    0.33    0.34</time>
   <energy>
    <i name="e_fr_energy">    -24.00123242 </i>
    <i name="e_wo_entrp">    -24.00123242 </i>
    <i name="e_0_energy">    -24.00123242 </i>
   </energy>
  </scstep>
  <scstep>
   <time name="diag">    0.03    0.04</time>
   <time name="diis">    0.14    0.14</time>
   <time name="orth">    0.00    0.00</time>
   <time name="total">    0.33    0.34</time>
   <energy>
    <i name="e_fr_energy">    -23.99562852 </i>
    <i name="e_wo_entrp">    -23.99562852 </i>
    <i name="e_0_energy">    -23.99562852 </i>
   </energy>
  </scstep>
  <scstep>
   <time name="diag">    0.03    0.03</time>
   <time name="diis">    0.15    0.15</time>
   <time name="orth">    0.00    0.00</time>
   <time name="total">    0.33    0.34</time>
   <energy>
    <i name="e_fr_energy">    -23.98938522 </i>
    <i name="e_wo_entrp">    -23.98938522 </i>
    <i name="e_0_energy">    -23.98938522 </i>
   </energy>
  </scstep>
  <scstep>
   <time name="diag">    0.03    0.04</time>
   <time name="diis">    0.14    0.14</time>
   <time name="orth">    0.00    0.00</time>
   <time name="total">    0.32    0.33</time>
   <energy>
    <i name="e_fr_energy">    -23.99010228 </i>
    <i name="e_wo_entrp">    -23.99010228 </i>
    <i name="e_0_energy">    -23.99010228 </i>
   </energy>
  </scstep>
  <scstep>
   <time name="diag">    0.03    0.03</time>
   <time name="diis">    0.14    0.14</time>
   <time name="orth">    0.00    0.00</time>
   <time name="total">    0.32    0.33</time>
   <energy>
    <i name="e_fr_energy">    -23.99941291 </i>
    <i name="e_wo_entrp">    -23.99941291 </i>
    <i name="e_0_energy">    -23.99941291 </i>
   </energy>
  </scstep>
  <scstep>
   <time name="diag">    0.03    0.04</time>
   <time name="diis">    0.14    0.14</time>
   <time name="orth">    0.00    0.00</time>
   <time name="total">    0.31    0.32</time>
   <energy>
    <i name="e_fr_energy">    -24.00001582 </i>
    <i name="e_wo_entrp">    -24.00001582 </i>
    <i name="e_0_energy">    -24.00001582 </i>
   </energy>
  </scstep>
  <scstep>
   <time name="diag">    0.06    0.06</time>
   <time name="diis">    0.17    0.17</time>
   <time name="orth">    0.00    0.00</time>
   <time name="total">    0.37    0.38</time>
   <energy>
    <i name="e_fr_energy">    -24.00284316 </i>
    <i name="e_wo_entrp">    -24.00284316 </i>
    <i name="e_0_energy">    -24.00284316 </i>
   </energy>
  </scstep>
  <scstep>
   <time name="diag">    0.03    0.03</time>
   <time name="diis">    0.14    0.15</time>
   <time name="orth">    0.00    0.00</time>
   <time name="total">    0.31    0.32</time>
   <energy>
    <i name="e_fr_energy">    -24.00313558 </i>
    <i name="e_wo_entrp">    -24.00313558 </i>
    <i name="e_0_energy">    -24.00313558 </i>
   </energy>
  </scstep>
  <scstep>
   <time name="diag">    0.03    0.03</time>
   <time name="diis">    0.14    0.14</time>
   <time name="orth">    0.00    0.00</time>
   <time name="total">    0.31    0.32</time>
   <energy>
    <i name="e_fr_energy">    -24.00334076 </i>
    <i name="e_wo_entrp">    -24.00334076 </i>
    <i name="e_0_energy">    -24.00334076 </i>
   </energy>
  </scstep>
  <scstep>
   <time name="diag">    0.03    0.03</time>
   <time name="diis">    0.14    0.14</time>
   <time name="orth">    0.00    0.00</time>
   <time name="total">    0.32    0.33</time>
   <energy>
    <i name="e_fr_energy">    -24.00338758 </i>
    <i name="e_wo_entrp">    -24.00338758 </i>
    <i name="e_0_energy">    -24.00338758 </i>
   </energy>
  </scstep>
  <scstep>
   <time name="diag">    0.03    0.03</time>
   <time name="diis">    0.14    0.14</time>
   <time name="orth">    0.00    0.00</time>
   <time name="total">    0.32    0.33</time>
   <energy>
    <i name="e_fr_energy">    -24.00339515 </i>
    <i name="e_wo_entrp">    -24.00339515 </i>
    <i name="e_0_energy">    -24.00339515 </i>
   </energy>
  </scstep>
  <scstep>
   <time name="diag">    0.03    0.03</time>
   <time name="diis">    0.11    0.12</time>
   <time name="orth">    0.00    0.00</time>
   <time name="total">    0.29    0.30</time>
   <energy>
    <i name="e_fr_energy">    -24.00339945 </i>
    <i name="e_wo_entrp">    -24.00339945 </i>
    <i name="e_0_energy">    -24.00339945 </i>
   </energy>
  </scstep>
  <scstep>
   <time name="diag">    0.03    0.03</time>
   <time name="diis">    0.11    0.12</time>
   <time name="orth">    0.00    0.00</time>
   <time name="total">    0.27    0.28</time>
   <energy>
    <i name="alphaZ">      0.23743361 </i>
    <i name="ewald">    127.83093664 </i>
    <i name="hartreedc">   -283.79134039 </i>
    <i name="XCdc">     24.65693694 </i>
    <i name="pawpsdc">    456.31289159 </i>
    <i name="pawaedc">   -457.09420107 </i>
    <i name="eentropy">     -0.00000000 </i>
    <i name="bandstr">    -89.19781212 </i>
    <i name="atom">    197.04175453 </i>
    <i name="e_fr_energy">    -24.00340027 </i>
    <i name="e_wo_entrp">    -24.00340027 </i>
    <i name="e_0_energy">    -24.00340027 </i>
   </energy>
  </scstep>
  <structure>
   <crystal>
    <varray name="basis" >
     <v>      10.24943435       0.00000000       0.00000000 </v>
     <v>       0.01212352       9.76950516       0.00000000 </v>
     <v>      -0.01890041       0.12368531      10.18944521 </v>
    </varray>
    <i name="volume">   1020.28852638 </i>
    <varray name="rec_basis" >
     <v>       0.09756636      -0.00012108       0.00018245 </v>
     <v>       0.00000000       0.10235933      -0.00124250 </v>
     <v>       0.00000000       0.00000000       0.09814077 </v>
    </varray>
   </crystal>
   <varray name="positions" >
    <v>       0.53863484       0.40693130       0.36093464 </v>
    <v>       0.39429429       0.48105319       0.43796981 </v>
    <v>       0.55212606       0.56542175       0.44228325 </v>
    <v>       0.52839707       0.41612764       0.53883638 </v>
    <v>       0.50329207       0.46737838       0.44536279 </v>
   </varray>
  </structure>
  <varray name="forces" >
   <v>      -0.19540347       0.09858447       0.38362486 </v>
   <v>       0.91943004      -0.07294914       0.06180847 </v>
   <v>       0.10590273       0.55971167      -0.02003050 </v>
   <v>      -0.07972417      -0.07027544      -0.15842493 </v>
   <v>      -0.75045451      -0.51440946      -0.26700518 </v>
  </varray>
  <varray name="stress" >
   <v>      -2.25031696       0.59039619       0.02999077 </v>
   <v>       0.59039619       0.18404095      -0.25303503 </v>
   <v>       0.02999077      -0.25303503      -1.34751886 </v>
  </varray>
  <energy>
   <i name="e_fr_energy">    -24.00340027 </i>
   <i name="e_wo_entrp">    -24.00340027 </i>
   <i name="e_0_energy">     -0.00000000 </i>
   <i name="kinetic">      0.00045234 </i>
   <i name="lattice kinetic">      0.00000000 </i>
   <i name="nosepot">      0.00000000 </i>
   <i name="nosekinetic">      0.00000000 </i>
   <i name="total">    -24.00294792 </i>
  </energy>
  <time name="totalsc">    6.45    6.68</time>
 </calculation>
 <calculation>
  <scstep>
   <time name="dav">    0.18    0.18</time>
   <time name="total">    0.33    0.33</time>
   <energy>
    <i name="alphaZ">      0.23743361 </i>
    <i name="ewald">    127.95061303 </i>
    <i name="hartreedc">   -283.86850209 </i>
    <i name="XCdc">     24.66081317 </i>
    <i name="pawpsdc">    456.31699813 </i>
    <i name="pawaedc">   -457.09832182 </i>
    <i name="eentropy">     -0.00000000 </i>
    <i name="bandstr">    -89.24765526 </i>
    <i name="atom">    197.04175453 </i>
    <i name="e_fr_energy">    -24.00686668 </i>
    <i name="e_wo_entrp">    -24.00686668 </i>
    <i name="e_0_energy">    -24.00686668 </i>
   </energy>
  </scstep>
  <scstep>
   <time name="diag">    0.03    0.03</time>
   <time name="diis">    0.14    0.14</time>
   <time name="orth">    0.00    0.00</time>
   <time name="total">    0.33    0.34</time>
   <energy>
    <i name="e_fr_energy">    -24.00686100 </i>
    <i name="e_wo_entrp">    -24.00686100 </i>
    <i name="e_0_energy">    -24.00686100 </i>
   </energy>
  </scstep>
  <scstep>
   <time name="diag">    0.04    0.04</time>
   <time name="diis">    0.14    0.14</time>
   <time name="orth">    0.00    0.00</time>
   <time name="total">    0.33    0.34</time>
   <energy>
    <i name="e_fr_energy">    -24.00686005 </i>
    <i name="e_wo_entrp">    -24.00686005 </i>
    <i name="e_0_energy">    -24.00686005 </i>
   </energy>
  </scstep>
  <scstep>
   <time name="diag">    0.03    0.03</time>
   <time name="diis">    0.12    0.12</time>
   <time name="orth">    0.00    0.00</time>
   <time name="total">    0.29    0.29</time>
   <energy>
    <i name="alphaZ">      0.23743361 </i>
    <i name="ewald">    127.95061303 </i>
    <i name="hartreedc">   -283.90209326 </i>
    <i name="XCdc">     24.66267806 </i>
    <i name="pawpsdc">    456.91450829 </i>
    <i name="pawaedc">   -457.69621042 </i>
    <i name="eentropy">     -0.00000000 </i>
    <i name="bandstr">    -89.21554372 </i>
    <i name="atom">    197.04175453 </i>
    <i name="e_fr_energy">    -24.00685987 </i>
    <i name="e_wo_entrp">    -24.00685987 </i>
    <i name="e_0_energy">    -24.00685987 </i>
   </energy>
  </scstep>
  <structure>
   <crystal>
    <varray name="basis" >
     <v>      10.24943435       0.00000000       0.00000000 </v>
     <v>       0.01212352       9.76950516       0.00000000 </v>
     <v>      -0.01890041       0.12368531      10.18944521 </v>
    </varray>
    <i name="volume">   1020.28852638 </i>
    <varray name="rec_basis" >
     <v>       0.09756636      -0.00012108       0.00018245 </v>
     <v>       0.00000000       0.10235933      -0.00124250 </v>
     <v>       0.00000000       0.00000000       0.09814077 </v>
    </varray>
   </crystal>
   <varray name="positions" >
    <v>       0.53858889       0.40695396       0.36102591 </v>
    <v>       0.39451143       0.48103470       0.43798391 </v>
    <v>       0.55215140       0.56555978       0.44227848 </v>
    <v>       0.52837840       0.41611084       0.53879824 </v>
    <v>       0.50327726       0.46736794       0.44535759 </v>
   </varray>
  </structure>
  <varray name="forces" >
   <v>      -0.18277320       0.08419963       0.35766130 </v>
   <v>       0.85429366      -0.06537790       0.05771906 </v>
   <v>       0.08623187       0.51346647      -0.01797909 </v>
   <v>      -0.07556211      -0.07119643      -0.14884049 </v>
   <v>      -0.68180228      -0.46010399      -0.24836236 </v>
  </varray>
  <varray name="stress" >
   <v>      -2.14638802       0.53308171       0.02796715 </v>
   <v>       0.53308171       0.12702365      -0.23375912 </v>
   <v>       0.02796716      -0.23375912      -1.30316253 </v>
  </varray>
  <energy>
   <i name="e_fr_energy">    -24.00685987 </i>
   <i name="e_wo_entrp">    -24.00685987 </i>
   <i name="e_0_energy">     -0.00000000 </i>
   <i name="kinetic">      0.00384554 </i>
   <i name="lattice kinetic">      0.00000000 </i>
   <i name="nosepot">      0.00000000 </i>
   <i name="nosekinetic">      0.00000000 </i>
   <i name="total">    -24.00301433 </i>
  </energy>
  <time name="totalsc">    1.86    1.88</time>
 </calculation>
 <calculation>
  <scstep>
   <time name="dav">    0.13    0.14</time>
   <time name="total">    0.28    0.29</time>
   <energy>
    <i name="alphaZ">      0.23743361 </i>
    <i name="ewald">    128.18418068 </i>
    <i name="hartreedc">   -284.10021448 </i>
    <i name="XCdc">     24.67303173 </i>
    <i name="pawpsdc">    458.19480195 </i>
    <i name="pawaedc">   -458.97710266 </i>
    <i name="eentropy">     -0.00000000 </i>
    <i name="bandstr">    -89.26661885 </i>
    <i name="atom">    197.04175453 </i>
    <i name="e_fr_energy">    -24.01273348 </i>
    <i name="e_wo_entrp">    -24.01273348 </i>
    <i name="e_0_energy">    -24.01273348 </i>
   </energy>
  </scstep>
  <scstep>
   <time name="diag">    0.03    0.03</time>
   <time name="diis">    0.14    0.14</time>
   <time name="orth">    0.00    0.00</time>
   <time name="total">    0.33    0.33</time>
   <energy>
    <i name="e_fr_energy">    -24.01274979 </i>
    <i name="e_wo_entrp">    -24.01274979 </i>
    <i name="e_0_energy">    -24.01274979 </i>
   </energy>
  </scstep>
  <scstep>
   <time name="diag">    0.03    0.03</time>
   <time name="diis">    0.13    0.14</time>
   <time name="orth">    0.00    0.00</time>
   <time name="total">    0.32    0.33</time>
   <energy>
    <i name="e_fr_energy">    -24.01275114 </i>
    <i name="e_wo_entrp">    -24.01275114 </i>
    <i name="e_0_energy">    -24.01275114 </i>
   </energy>
  </scstep>
  <scstep>
   <time name="diag">    0.03    0.03</time>
   <time name="diis">    0.11    0.12</time>
   <time name="orth">    0.00    0.00</time>
   <time name="total">    0.28    0.28</time>
   <energy>
    <i name="alphaZ">      0.23743361 </i>
    <i name="ewald">    128.18418068 </i>
    <i name="hartreedc">   -284.11290012 </i>
    <i name="XCdc">     24.67367318 </i>
    <i name="pawpsdc">    458.24760714 </i>
    <i name="pawaedc">   -459.03004284 </i>
    <i name="eentropy">     -0.00000000 </i>
    <i name="bandstr">    -89.25445781 </i>
    <i name="atom">    197.04175453 </i>
    <i name="e_fr_energy">    -24.01275162 </i>
    <i name="e_wo_entrp">    -24.01275162 </i>
    <i name="e_0_energy">    -24.01275162 </i>
   </energy>
  </scstep>
  <structure>
   <crystal>
    <varray name="basis" >
     <v>      10.24943435       0.00000000       0.00000000 </v>
     <v>       0.01212352       9.76950516       0.00000000 </v>
     <v>      -0.01890041       0.12368531      10.18944521 </v>
    </varray>
    <i name="volume">   1020.28852638 </i>
    <varray name="rec_basis" >
     <v>       0.09756636      -0.00012108       0.00018245 </v>
     <v>       0.00000000       0.10235933      -0.00124250 </v>
     <v>       0.00000000       0.00000000       0.09814077 </v>
    </varray>
   </crystal>
   <varray name="positions" >
    <v>       0.53850006       0.40699632       0.36120183 </v>
    <v>       0.39492967       0.48099987       0.43801168 </v>
    <v>       0.55219686       0.56582464       0.44226945 </v>
    <v>       0.52834190       0.41607690       0.53872486 </v>
    <v>       0.50324909       0.46734809       0.44534749 </v>
   </varray>
  </structure>
  <varray name="forces" >
   <v>      -0.15946542       0.05728850       0.30899853 </v>
   <v>       0.72805196      -0.05102047       0.04969035 </v>
   <v>       0.04763027       0.42320820      -0.01412143 </v>
   <v>      -0.06858792      -0.07202757      -0.13287913 </v>
   <v>      -0.54833763      -0.35726523      -0.21188649 </v>
  </varray>
  <varray name="stress" >
   <v>      -1.93191930       0.42259875       0.02385599 </v>
   <v>       0.42259875       0.02804682      -0.19629233 </v>
   <v>       0.02385599      -0.19629233      -1.20829240 </v>
  </varray>
  <energy>
   <i name="e_fr_energy">    -24.01275162 </i>
   <i name="e_wo_entrp">    -24.01275162 </i>
   <i name="e_0_energy">     -0.00000000 </i>
   <i name="kinetic">      0.00962788 </i>
   <i name="lattice kinetic">      0.00000000 </i>
   <i name="nosepot">      0.00000000 </i>
   <i name="nosekinetic">      0.00000000 </i>
   <i name="total">    -24.00312375 </i>
  </energy>
  <time name="totalsc">    1.78    1.81</time>
 </calculation>
 <calculation>
  <scstep>
   <time name="dav">    0.13    0.13</time>
   <time name="total">    0.28    0.29</time>
   <energy>
    <i name="alphaZ">      0.23743361 </i>
    <i name="ewald">    128.52196958 </i>
    <i name="hartreedc">   -284.44903643 </i>
    <i name="XCdc">     24.69113807 </i>
    <i name="pawpsdc">    460.17104366 </i>
    <i name="pawaedc">   -460.95491432 </i>
    <i name="eentropy">     -0.00000000 </i>
    <i name="bandstr">    -89.27873410 </i>
    <i name="atom">    197.04175453 </i>
    <i name="e_fr_energy">    -24.01934538 </i>
    <i name="e_wo_entrp">    -24.01934538 </i>
    <i name="e_0_energy">    -24.01934538 </i>
   </energy>
  </scstep>
  <scstep>
   <time name="diag">    0.03    0.03</time>
   <time name="diis">    0.14    0.14</time>
   <time name="orth">    0.00    0.00</time>
   <time name="total">    0.32    0.33</time>
   <energy>
    <i name="e_fr_energy">    -24.01934530 </i>
    <i name="e_wo_entrp">    -24.01934530 </i>
    <i name="e_0_energy">    -24.01934530 </i>
   </energy>
  </scstep>
  <scstep>
   <time name="diag">    0.03    0.03</time>
   <time name="diis">    0.14    0.14</time>
   <time name="orth">    0.00    0.00</time>
   <time name="total">    0.32    0.33</time>
   <energy>
    <i name="e_fr_energy">    -24.01934563 </i>
    <i name="e_wo_entrp">    -24.01934563 </i>
    <i name="e_0_energy">    -24.01934563 </i>
   </energy>
  </scstep>
  <scstep>
   <time name="diag">    0.03    0.03</time>
   <time name="diis">    0.11    0.12</time>
   <time name="orth">    0.00    0.00</time>
   <time name="total">    0.27    0.28</time>
   <energy>
    <i name="alphaZ">      0.23743361 </i>
    <i name="ewald">    128.52196958 </i>
    <i name="hartreedc">   -284.41826221 </i>
    <i name="XCdc">     24.68959756 </i>
    <i name="pawpsdc">    460.09565117 </i>
    <i name="pawaedc">   -460.87916970 </i>
    <i name="eentropy">     -0.00000000 </i>
    <i name="bandstr">    -89.30832057 </i>
    <i name="atom">    197.04175453 </i>
    <i name="e_fr_energy">    -24.01934602 </i>
    <i name="e_wo_entrp">    -24.01934602 </i>
    <i name="e_0_energy">    -24.01934602 </i>
   </energy>
  </scstep>
  <structure>
   <crystal>
    <varray name="basis" >
     <v>      10.24943435       0.00000000       0.00000000 </v>
     <v>       0.01212352       9.76950516       0.00000000 </v>
     <v>      -0.01890041       0.12368531      10.18944521 </v>
    </varray>
    <i name="volume">   1020.28852638 </i>
    <varray name="rec_basis" >
     <v>       0.09756636      -0.00012108       0.00018245 </v>
     <v>       0.00000000       0.10235933      -0.00124250 </v>
     <v>       0.00000000       0.00000000       0.09814077 </v>
    </varray>
   </crystal>
   <varray name="positions" >
    <v>       0.53837383       0.40705189       0.36145091 </v>
    <v>       0.39551929       0.48095230       0.43805121 </v>
    <v>       0.55225341       0.56619402       0.44225708 </v>
    <v>       0.52828922       0.41602557       0.53862002 </v>
    <v>       0.50321018       0.46732094       0.44533322 </v>
   </varray>
  </structure>
  <varray name="forces" >
   <v>      -0.12576003       0.01867651       0.23892078 </v>
   <v>       0.54399968      -0.02986292       0.03807620 </v>
   <v>      -0.00289970       0.30242520      -0.00895423 </v>
   <v>      -0.05826552      -0.07364232      -0.10891289 </v>
   <v>      -0.35742007      -0.21686492      -0.15919572 </v>
  </varray>
  <varray name="stress" >
   <v>      -1.62773392       0.26937947       0.01800768 </v>
   <v>       0.26937947      -0.11219114      -0.14337601 </v>
   <v>       0.01800768      -0.14337601      -1.07951361 </v>
  </varray>
  <energy>
   <i name="e_fr_energy">    -24.01934602 </i>
   <i name="e_wo_entrp">    -24.01934602 </i>
   <i name="e_0_energy">     -0.00000000 </i>
   <i name="kinetic">      0.01609459 </i>
   <i name="lattice kinetic">      0.00000000 </i>
   <i name="nosepot">      0.00000000 </i>
   <i name="nosekinetic">      0.00000000 </i>
   <i name="total">    -24.00325143 </i>
  </energy>
  <time name="totalsc">    1.77    1.82</time>
 </calculation>
 <calculation>
  <scstep>
   <time name="dav">    0.13    0.14</time>
   <time name="total">    0.27    0.28</time>
   <energy>
    <i name="alphaZ">      0.23743361 </i>
    <i name="ewald">    128.94644359 </i>
    <i name="hartreedc">   -284.80517234 </i>
    <i name="XCdc">     24.70992907 </i>
    <i name="pawpsdc">    462.62428042 </i>
    <i name="pawaedc">   -463.40929025 </i>
    <i name="eentropy">     -0.00000000 </i>
    <i name="bandstr">    -89.37003139 </i>
    <i name="atom">    197.04175453 </i>
    <i name="e_fr_energy">    -24.02465275 </i>
    <i name="e_wo_entrp">    -24.02465275 </i>
    <i name="e_0_energy">    -24.02465275 </i>
   </energy>
  </scstep>
  <scstep>
   <time name="diag">    0.03    0.03</time>
   <time name="diis">    0.14    0.15</time>
   <time name="orth">    0.00    0.00</time>
   <time name="total">    0.32    0.33</time>
   <energy>
    <i name="e_fr_energy">    -24.02465641 </i>
    <i name="e_wo_entrp">    -24.02465641 </i>
    <i name="e_0_energy">    -24.02465641 </i>
   </energy>
  </scstep>
  <scstep>
   <time name="diag">    0.03    0.03</time>
   <time name="diis">    0.11    0.12</time>
   <time name="orth">    0.00    0.00</time>
   <time name="total">    0.29    0.30</time>
   <energy>
    <i name="e_fr_energy">    -24.02465964 </i>
    <i name="e_wo_entrp">    -24.02465964 </i>
    <i name="e_0_energy">    -24.02465964 </i>
   </energy>
  </scstep>
  <scstep>
   <time name="diag">    0.03    0.03</time>
   <time name="diis">    0.11    0.12</time>
   <time name="orth">    0.00    0.00</time>
   <time name="total">    0.29    0.30</time>
   <energy>
    <i name="e_fr_energy">    -24.02466377 </i>
    <i name="e_wo_entrp">    -24.02466377 </i>
    <i name="e_0_energy">    -24.02466377 </i>
   </energy>
  </scstep>
  <scstep>
   <time name="diag">    0.03    0.03</time>
   <time name="diis">    0.11    0.12</time>
   <time name="orth">    0.00    0.00</time>
   <time name="total">    0.29    0.30</time>
   <energy>
    <i name="e_fr_energy">    -24.02466693 </i>
    <i name="e_wo_entrp">    -24.02466693 </i>
    <i name="e_0_energy">    -24.02466693 </i>
   </energy>
  </scstep>
  <scstep>
   <time name="diag">    0.03    0.03</time>
   <time name="diis">    0.11    0.12</time>
   <time name="orth">    0.00    0.00</time>
   <time name="total">    0.29    0.30</time>
   <energy>
    <i name="e_fr_energy">    -24.02467239 </i>
    <i name="e_wo_entrp">    -24.02467239 </i>
    <i name="e_0_energy">    -24.02467239 </i>
   </energy>
  </scstep>
  <scstep>
   <time name="diag">    0.03    0.03</time>
   <time name="diis">    0.11    0.11</time>
   <time name="orth">    0.00    0.00</time>
   <time name="total">    0.27    0.28</time>
   <energy>
    <i name="alphaZ">      0.23743361 </i>
    <i name="ewald">    128.94644359 </i>
    <i name="hartreedc">   -284.79548341 </i>
    <i name="XCdc">     24.70939782 </i>
    <i name="pawpsdc">    462.57699134 </i>
    <i name="pawaedc">   -463.36194748 </i>
    <i name="eentropy">     -0.00000000 </i>
    <i name="bandstr">    -89.37926291 </i>
    <i name="atom">    197.04175453 </i>
    <i name="e_fr_energy">    -24.02467289 </i>
    <i name="e_wo_entrp">    -24.02467289 </i>
    <i name="e_0_energy">    -24.02467289 </i>
   </energy>
  </scstep>
  <structure>
   <crystal>
    <varray name="basis" >
     <v>      10.24943435       0.00000000       0.00000000 </v>
     <v>       0.01212352       9.76950516       0.00000000 </v>
     <v>      -0.01890041       0.12368531      10.18944521 </v>
    </varray>
    <i name="volume">   1020.28852638 </i>
    <varray name="rec_basis" >
     <v>       0.09756636      -0.00012108       0.00018245 </v>
     <v>       0.00000000       0.10235933      -0.00124250 </v>
     <v>       0.00000000       0.00000000       0.09814077 </v>
    </varray>
   </crystal>
   <varray name="positions" >
    <v>       0.53821811       0.40711135       0.36175655 </v>
    <v>       0.39623697       0.48089722       0.43809976 </v>
    <v>       0.55230920       0.56663809       0.44224259 </v>
    <v>       0.52822282       0.41595637       0.53848941 </v>
    <v>       0.50316428       0.46728936       0.44531582 </v>
   </varray>
  </structure>
  <varray name="forces" >
   <v>      -0.08408112      -0.02857718       0.15230912 </v>
   <v>       0.31100037      -0.00311622       0.02337690 </v>
   <v>      -0.06016361       0.16144400      -0.00294816 </v>
   <v>      -0.04561287      -0.07497768      -0.07959995 </v>
   <v>      -0.12150008      -0.05445816      -0.09315893 </v>
  </varray>
  <varray name="stress" >
   <v>      -1.24216572       0.08676338       0.01081047 </v>
   <v>       0.08676339      -0.27234134      -0.07892132 </v>
   <v>       0.01081047      -0.07892132      -0.92043167 </v>
  </varray>
  <energy>
   <i name="e_fr_energy">    -24.02467289 </i>
   <i name="e_wo_entrp">    -24.02467289 </i>
   <i name="e_0_energy">     -0.00000000 </i>
   <i name="kinetic">      0.02131611 </i>
   <i name="lattice kinetic">      0.00000000 </i>
   <i name="nosepot">      0.00000000 </i>
   <i name="nosekinetic">      0.00000000 </i>
   <i name="total">    -24.00335678 </i>
  </energy>
  <time name="totalsc">    2.60    2.66</time>
 </calculation>
 <calculation>
  <scstep>
   <time name="dav">    0.16    0.16</time>
   <time name="total">    0.30    0.31</time>
   <energy>
    <i name="alphaZ">      0.23743361 </i>
    <i name="ewald">    129.43136406 </i>
    <i name="hartreedc">   -285.20611986 </i>
    <i name="XCdc">     24.73114755 </i>
    <i name="pawpsdc">    465.46077772 </i>
    <i name="pawaedc">   -466.24725078 </i>
    <i name="eentropy">     -0.00000000 </i>
    <i name="bandstr">    -89.47622633 </i>
    <i name="atom">    197.04175453 </i>
    <i name="e_fr_energy">    -24.02711951 </i>
    <i name="e_wo_entrp">    -24.02711951 </i>
    <i name="e_0_energy">    -24.02711951 </i>
   </energy>
  </scstep>
  <scstep>
   <time name="diag">    0.03    0.03</time>
   <time name="diis">    0.14    0.15</time>
   <time name="orth">    0.00    0.00</time>
   <time name="total">    0.32    0.33</time>
   <energy>
    <i name="e_fr_energy">    -24.02712040 </i>
    <i name="e_wo_entrp">    -24.02712040 </i>
    <i name="e_0_energy">    -24.02712040 </i>
   </energy>
  </scstep>
  <scstep>
   <time name="diag">    0.04    0.04</time>
   <time name="diis">    0.13    0.13</time>
   <time name="orth">    0.00    0.00</time>
   <time name="total">    0.32    0.33</time>
   <energy>
    <i name="e_fr_energy">    -24.02712221 </i>
    <i name="e_wo_entrp">    -24.02712221 </i>
    <i name="e_0_energy">    -24.02712221 </i>
   </energy>
  </scstep>
  <scstep>
   <time name="diag">    0.03    0.03</time>
   <time name="diis">    0.11    0.12</time>
   <time name="orth">    0.00    0.00</time>
   <time name="total">    0.30    0.30</time>
   <energy>
    <i name="e_fr_energy">    -24.02712334 </i>
    <i name="e_wo_entrp">    -24.02712334 </i>
    <i name="e_0_energy">    -24.02712334 </i>
   </energy>
  </scstep>
  <scstep>
   <time name="diag">    0.03    0.03</time>
   <time name="diis">    0.11    0.12</time>
   <time name="orth">    0.00    0.00</time>
   <time name="total">    0.30    0.31</time>
   <energy>
    <i name="e_fr_energy">    -24.02712495 </i>
    <i name="e_wo_entrp">    -24.02712495 </i>
    <i name="e_0_energy">    -24.02712495 </i>
   </energy>
  </scstep>
  <scstep>
   <time name="diag">    0.03    0.03</time>
   <time name="diis">    0.10    0.11</time>
   <time name="orth">    0.00    0.00</time>
   <time name="total">    0.26    0.28</time>
   <energy>
    <i name="alphaZ">      0.23743361 </i>
    <i name="ewald">    129.43136406 </i>
    <i name="hartreedc">   -285.22365821 </i>
    <i name="XCdc">     24.73201779 </i>
    <i name="pawpsdc">    465.45312541 </i>
    <i name="pawaedc">   -466.23976471 </i>
    <i name="eentropy">     -0.00000000 </i>
    <i name="bandstr">    -89.45939785 </i>
    <i name="atom">    197.04175453 </i>
    <i name="e_fr_energy">    -24.02712537 </i>
    <i name="e_wo_entrp">    -24.02712537 </i>
    <i name="e_0_energy">    -24.02712537 </i>
   </energy>
  </scstep>
  <structure>
   <crystal>
    <varray name="basis" >
     <v>      10.24943435       0.00000000       0.00000000 </v>
     <v>       0.01212352       9.76950516       0.00000000 </v>
     <v>      -0.01890041       0.12368531      10.18944521 </v>
    </varray>
    <i name="volume">   1020.28852638 </i>
    <varray name="rec_basis" >
     <v>       0.09756636      -0.00012108       0.00018245 </v>
     <v>       0.00000000       0.10235933      -0.00124250 </v>
     <v>       0.00000000       0.00000000       0.09814077 </v>
    </varray>
   </crystal>
   <varray name="positions" >
    <v>       0.53804267       0.40716329       0.36209824 </v>
    <v>       0.39702786       0.48084130       0.43815384 </v>
    <v>       0.55235078       0.56712202       0.44222740 </v>
    <v>       0.52814567       0.41586890       0.53833995 </v>
    <v>       0.50311600       0.46725669       0.44529657 </v>
   </varray>
  </structure>
  <varray name="forces" >
   <v>      -0.03752715      -0.08052991       0.05549563 </v>
   <v>       0.04332112       0.02755939       0.00651502 </v>
   <v>      -0.11777757       0.01395535       0.00320712 </v>
   <v>      -0.03162223      -0.07571490      -0.04682501 </v>
   <v>       0.14368070       0.11526960      -0.01836195 </v>
  </varray>
  <varray name="stress" >
   <v>      -0.79989490      -0.10982826       0.00308256 </v>
   <v>      -0.10982826      -0.43950855      -0.00791943 </v>
   <v>       0.00308256      -0.00791943      -0.74228567 </v>
  </varray>
  <energy>
   <i name="e_fr_energy">    -24.02712537 </i>
   <i name="e_wo_entrp">    -24.02712537 </i>
   <i name="e_0_energy">     -0.00000000 </i>
   <i name="kinetic">      0.02371851 </i>
   <i name="lattice kinetic">      0.00000000 </i>
   <i name="nosepot">      0.00000000 </i>
   <i name="nosekinetic">      0.00000000 </i>
   <i name="total">    -24.00340686 </i>
  </energy>
  <time name="totalsc">    2.44    2.52</time>
 </calculation>
 <calculation>
  <scstep>
   <time name="dav">    0.13    0.14</time>
   <time name="total">    0.28    0.29</time>
   <energy>
    <i name="alphaZ">      0.23743361 </i>
    <i name="ewald">    129.94159308 </i>
    <i name="hartreedc">   -285.68396196 </i>
    <i name="XCdc">     24.75641530 </i>
    <i name="pawpsdc">    468.64325271 </i>
    <i name="pawaedc">   -469.43187316 </i>
    <i name="eentropy">     -0.00000000 </i>
    <i name="bandstr">    -89.53057796 </i>
    <i name="atom">    197.04175453 </i>
    <i name="e_fr_energy">    -24.02596386 </i>
    <i name="e_wo_entrp">    -24.02596386 </i>
    <i name="e_0_energy">    -24.02596386 </i>
   </energy>
  </scstep>
  <scstep>
   <time name="diag">    0.03    0.03</time>
   <time name="diis">    0.15    0.15</time>
   <time name="orth">    0.00    0.00</time>
   <time name="total">    0.33    0.34</time>
   <energy>
    <i name="e_fr_energy">    -24.02596620 </i>
    <i name="e_wo_entrp">    -24.02596620 </i>
    <i name="e_0_energy">    -24.02596620 </i>
   </energy>
  </scstep>
  <scstep>
   <time name="diag">    0.03    0.03</time>
   <time name="diis">    0.11    0.12</time>
   <time name="orth">    0.00    0.00</time>
   <time name="total">    0.29    0.30</time>
   <energy>
    <i name="e_fr_energy">    -24.02596836 </i>
    <i name="e_wo_entrp">    -24.02596836 </i>
    <i name="e_0_energy">    -24.02596836 </i>
   </energy>
  </scstep>
  <scstep>
   <time name="diag">    0.03    0.03</time>
   <time name="diis">    0.11    0.12</time>
   <time name="orth">    0.00    0.00</time>
   <time name="total">    0.29    0.30</time>
   <energy>
    <i name="e_fr_energy">    -24.02596997 </i>
    <i name="e_wo_entrp">    -24.02596997 </i>
    <i name="e_0_energy">    -24.02596997 </i>
   </energy>
  </scstep>
  <scstep>
   <time name="diag">    0.03    0.03</time>
   <time name="diis">    0.11    0.12</time>
   <time name="orth">    0.00    0.00</time>
   <time name="total">    0.29    0.30</time>
   <energy>
    <i name="e_fr_energy">    -24.02597125 </i>
    <i name="e_wo_entrp">    -24.02597125 </i>
    <i name="e_0_energy">    -24.02597125 </i>
   </energy>
  </scstep>
  <scstep>
   <time name="diag">    0.03    0.03</time>
   <time name="diis">    0.10    0.10</time>
   <time name="orth">    0.00    0.00</time>
   <time name="total">    0.35    0.36</time>
   <energy>
    <i name="e_fr_energy">    -24.02597376 </i>
    <i name="e_wo_entrp">    -24.02597376 </i>
    <i name="e_0_energy">    -24.02597376 </i>
   </energy>
  </scstep>
  <scstep>
   <time name="diag">    0.03    0.03</time>
   <time name="diis">    0.11    0.11</time>
   <time name="orth">    0.00    0.00</time>
   <time name="total">    0.27    0.28</time>
   <energy>
    <i name="alphaZ">      0.23743361 </i>
    <i name="ewald">    129.94159308 </i>
    <i name="hartreedc">   -285.66944963 </i>
    <i name="XCdc">     24.75568944 </i>
    <i name="pawpsdc">    468.55789609 </i>
    <i name="pawaedc">   -469.34634362 </i>
    <i name="eentropy">     -0.00000000 </i>
    <i name="bandstr">    -89.54454750 </i>
    <i name="atom">    197.04175453 </i>
    <i name="e_fr_energy">    -24.02597400 </i>
    <i name="e_wo_entrp">    -24.02597400 </i>
    <i name="e_0_energy">    -24.02597400 </i>
   </energy>
  </scstep>
  <structure>
   <crystal>
    <varray name="basis" >
     <v>      10.24943435       0.00000000       0.00000000 </v>
     <v>       0.01212352       9.76950516       0.00000000 </v>
     <v>      -0.01890041       0.12368531      10.18944521 </v>
    </varray>
    <i name="volume">   1020.28852638 </i>
    <varray name="rec_basis" >
     <v>       0.09756636      -0.00012108       0.00018245 </v>
     <v>       0.00000000       0.10235933      -0.00124250 </v>
     <v>       0.00000000       0.00000000       0.09814077 </v>
    </varray>
   </crystal>
   <varray name="positions" >
    <v>       0.53785846       0.40719517       0.36245307 </v>
    <v>       0.39782894       0.48079216       0.43820946 </v>
    <v>       0.55236464       0.56760939       0.44221297 </v>
    <v>       0.52806108       0.41576286       0.53817940 </v>
    <v>       0.50307053       0.46722638       0.44527697 </v>
   </varray>
  </structure>
  <varray name="forces" >
   <v>       0.01064911      -0.13315110      -0.04503850 </v>
   <v>      -0.24072901       0.05981169      -0.01132825 </v>
   <v>      -0.16949420      -0.12713133       0.00898290 </v>
   <v>      -0.01713385      -0.07573683      -0.01206391 </v>
   <v>       0.41674634       0.27641915       0.05937612 </v>
  </varray>
  <varray name="stress" >
   <v>      -0.33457669      -0.30313776      -0.00459104 </v>
   <v>      -0.30313776      -0.60108588       0.06393718 </v>
   <v>      -0.00459104       0.06393718      -0.55973041 </v>
  </varray>
  <energy>
   <i name="e_fr_energy">    -24.02597400 </i>
   <i name="e_wo_entrp">    -24.02597400 </i>
   <i name="e_0_energy">     -0.00000000 </i>
   <i name="kinetic">      0.02259161 </i>
   <i name="lattice kinetic">      0.00000000 </i>
   <i name="nosepot">      0.00000000 </i>
   <i name="nosekinetic">      0.00000000 </i>
   <i name="total">    -24.00338239 </i>
  </energy>
  <time name="totalsc">    2.66    2.74</time>
 </calculation>
 <calculation>
  <scstep>
   <time name="dav">    0.13    0.14</time>
   <time name="total">    0.27    0.28</time>
   <energy>
    <i name="alphaZ">      0.23743361 </i>
    <i name="ewald">    130.43429405 </i>
    <i name="hartreedc">   -286.08988552 </i>
    <i name="XCdc">     24.77812544 </i>
    <i name="pawpsdc">    471.76136862 </i>
    <i name="pawaedc">   -472.55157002 </i>
    <i name="eentropy">     -0.00000000 </i>
    <i name="bandstr">    -89.63317788 </i>
    <i name="atom">    197.04175453 </i>
    <i name="e_fr_energy">    -24.02165718 </i>
    <i name="e_wo_entrp">    -24.02165718 </i>
    <i name="e_0_energy">    -24.02165718 </i>
   </energy>
  </scstep>
  <scstep>
   <time name="diag">    0.03    0.03</time>
   <time name="diis">    0.14    0.14</time>
   <time name="orth">    0.00    0.00</time>
   <time name="total">    0.32    0.33</time>
   <energy>
    <i name="e_fr_energy">    -24.02165843 </i>
    <i name="e_wo_entrp">    -24.02165843 </i>
    <i name="e_0_energy">    -24.02165843 </i>
   </energy>
  </scstep>
  <scstep>
   <time name="diag">    0.03    0.03</time>
   <time name="diis">    0.12    0.12</time>
   <time name="orth">    0.00    0.00</time>
   <time name="total">    0.29    0.30</time>
   <energy>
    <i name="e_fr_energy">    -24.02165865 </i>
    <i name="e_wo_entrp">    -24.02165865 </i>
    <i name="e_0_energy">    -24.02165865 </i>
   </energy>
  </scstep>
  <scstep>
   <time name="diag">    0.03    0.03</time>
   <time name="diis">    0.11    0.12</time>
   <time name="orth">    0.00    0.00</time>
   <time name="total">    0.27    0.28</time>
   <energy>
    <i name="alphaZ">      0.23743361 </i>
    <i name="ewald">    130.43429405 </i>
    <i name="hartreedc">   -286.09718059 </i>
    <i name="XCdc">     24.77847499 </i>
    <i name="pawpsdc">    471.66334737 </i>
    <i name="pawaedc">   -472.45360611 </i>
    <i name="eentropy">     -0.00000000 </i>
    <i name="bandstr">    -89.62617689 </i>
    <i name="atom">    197.04175453 </i>
    <i name="e_fr_energy">    -24.02165903 </i>
    <i name="e_wo_entrp">    -24.02165903 </i>
    <i name="e_0_energy">    -24.02165903 </i>
   </energy>
  </scstep>
  <structure>
   <crystal>
    <varray name="basis" >
     <v>      10.24943435       0.00000000       0.00000000 </v>
     <v>       0.01212352       9.76950516       0.00000000 </v>
     <v>      -0.01890041       0.12368531      10.18944521 </v>
    </varray>
    <i name="volume">   1020.28852638 </i>
    <varray name="rec_basis" >
     <v>       0.09756636      -0.00012108       0.00018245 </v>
     <v>       0.00000000       0.10235933      -0.00124250 </v>
     <v>       0.00000000       0.00000000       0.09814077 </v>
    </varray>
   </crystal>
   <varray name="positions" >
    <v>       0.53767677       0.40719431       0.36279725 </v>
    <v>       0.39857334       0.48075782       0.43826240 </v>
    <v>       0.55233865       0.56806533       0.44220067 </v>
    <v>       0.52797248       0.41563815       0.53801600 </v>
    <v>       0.50303322       0.46720173       0.44525853 </v>
   </varray>
  </structure>
  <varray name="forces" >
   <v>       0.05633324      -0.18094542      -0.14075536 </v>
   <v>      -0.51532493       0.09028503      -0.02851566 </v>
   <v>      -0.21072797      -0.25163266       0.01392116 </v>
   <v>      -0.00327954      -0.07416108       0.02193398 </v>
   <v>       0.67318955       0.41663740       0.13340261 </v>
  </varray>
  <varray name="stress" >
   <v>       0.11614501      -0.47633237      -0.01170892 </v>
   <v>      -0.47633238      -0.74383800       0.13075516 </v>
   <v>      -0.01170892       0.13075516      -0.38435174 </v>
  </varray>
  <energy>
   <i name="e_fr_energy">    -24.02165903 </i>
   <i name="e_wo_entrp">    -24.02165903 </i>
   <i name="e_0_energy">     -0.00000000 </i>
   <i name="kinetic">      0.01837048 </i>
   <i name="lattice kinetic">      0.00000000 </i>
   <i name="nosepot">      0.00000000 </i>
   <i name="nosekinetic">      0.00000000 </i>
   <i name="total">    -24.00328856 </i>
  </energy>
  <time name="totalsc">    2.03    2.09</time>
 </calculation>
 <calculation>
  <scstep>
   <time name="dav">    0.13    0.14</time>
   <time name="total">    0.38    0.40</time>
   <energy>
    <i name="alphaZ">      0.23743361 </i>
    <i name="ewald">    130.86332541 </i>
    <i name="hartreedc">   -286.47565423 </i>
    <i name="XCdc">     24.79866737 </i>
    <i name="pawpsdc">    474.48658565 </i>
    <i name="pawaedc">   -475.27858331 </i>
    <i name="eentropy">     -0.00000000 </i>
    <i name="bandstr">    -89.68924296 </i>
    <i name="atom">    197.04175453 </i>
    <i name="e_fr_energy">    -24.01571392 </i>
    <i name="e_wo_entrp">    -24.01571392 </i>
    <i name="e_0_energy">    -24.01571392 </i>
   </energy>
  </scstep>
  <scstep>
   <time name="diag">    0.03    0.03</time>
   <time name="diis">    0.14    0.15</time>
   <time name="orth">    0.00    0.00</time>
   <time name="total">    0.32    0.33</time>
   <energy>
    <i name="e_fr_energy">    -24.01571520 </i>
    <i name="e_wo_entrp">    -24.01571520 </i>
    <i name="e_0_energy">    -24.01571520 </i>
   </energy>
  </scstep>
  <scstep>
   <time name="diag">    0.03    0.03</time>
   <time name="diis">    0.11    0.12</time>
   <time name="orth">    0.00    0.00</time>
   <time name="total">    0.29    0.30</time>
   <energy>
    <i name="e_fr_energy">    -24.01571547 </i>
    <i name="e_wo_entrp">    -24.01571547 </i>
    <i name="e_0_energy">    -24.01571547 </i>
   </energy>
  </scstep>
  <scstep>
   <time name="diag">    0.03    0.03</time>
   <time name="diis">    0.11    0.11</time>
   <time name="orth">    0.00    0.00</time>
   <time name="total">    0.27    0.28</time>
   <energy>
    <i name="alphaZ">      0.23743361 </i>
    <i name="ewald">    130.86332541 </i>
    <i name="hartreedc">   -286.46506559 </i>
    <i name="XCdc">     24.79817868 </i>
    <i name="pawpsdc">    474.40878680 </i>
    <i name="pawaedc">   -475.20061307 </i>
    <i name="eentropy">     -0.00000000 </i>
    <i name="bandstr">    -89.69951641 </i>
    <i name="atom">    197.04175453 </i>
    <i name="e_fr_energy">    -24.01571603 </i>
    <i name="e_wo_entrp">    -24.01571603 </i>
    <i name="e_0_energy">    -24.01571603 </i>
   </energy>
  </scstep>
  <structure>
   <crystal>
    <varray name="basis" >
     <v>      10.24943435       0.00000000       0.00000000 </v>
     <v>       0.01212352       9.76950516       0.00000000 </v>
     <v>      -0.01890041       0.12368531      10.18944521 </v>
    </varray>
    <i name="volume">   1020.28852638 </i>
    <varray name="rec_basis" >
     <v>       0.09756636      -0.00012108       0.00018245 </v>
     <v>       0.00000000       0.10235933      -0.00124250 </v>
     <v>       0.00000000       0.00000000       0.09814077 </v>
    </varray>
   </crystal>
   <varray name="positions" >
    <v>       0.53750832       0.40714919       0.36310810 </v>
    <v>       0.39919642       0.48074585       0.43830860 </v>
    <v>       0.55226315       0.56845910       0.44219167 </v>
    <v>       0.52788313       0.41549507       0.53785780 </v>
    <v>       0.50300910       0.46718561       0.44524273 </v>
   </varray>
  </structure>
  <varray name="forces" >
   <v>       0.09575376      -0.21910975      -0.22408504 </v>
   <v>      -0.75287904       0.11526771      -0.04334941 </v>
   <v>      -0.23755562      -0.35061447       0.01768025 </v>
   <v>       0.00909657      -0.07082935       0.05353147 </v>
   <v>       0.88564388       0.52543211       0.19613833 </v>
  </varray>
  <varray name="stress" >
   <v>       0.50700884      -0.61333425      -0.01769187 </v>
   <v>      -0.61333425      -0.86055752       0.18655419 </v>
   <v>      -0.01769187       0.18655419      -0.23044604 </v>
  </varray>
  <energy>
   <i name="e_fr_energy">    -24.01571603 </i>
   <i name="e_wo_entrp">    -24.01571603 </i>
   <i name="e_0_energy">     -0.00000000 </i>
   <i name="kinetic">      0.01256392 </i>
   <i name="lattice kinetic">      0.00000000 </i>
   <i name="nosepot">      0.00000000 </i>
   <i name="nosekinetic">      0.00000000 </i>
   <i name="total">    -24.00315212 </i>
  </energy>
  <time name="totalsc">    1.84    1.89</time>
 </calculation>
 <calculation>
  <scstep>
   <time name="dav">    0.25    0.26</time>
   <time name="total">    0.40    0.42</time>
   <energy>
    <i name="alphaZ">      0.23743361 </i>
    <i name="ewald">    131.18484779 </i>
    <i name="hartreedc">   -286.74306608 </i>
    <i name="XCdc">     24.81308646 </i>
    <i name="pawpsdc">    476.63914604 </i>
    <i name="pawaedc">   -477.43221893 </i>
    <i name="eentropy">     -0.00000000 </i>
    <i name="bandstr">    -89.75129198 </i>
    <i name="atom">    197.04175453 </i>
    <i name="e_fr_energy">    -24.01030855 </i>
    <i name="e_wo_entrp">    -24.01030855 </i>
    <i name="e_0_energy">    -24.01030855 </i>
   </energy>
  </scstep>
  <scstep>
   <time name="diag">    0.03    0.03</time>
   <time name="diis">    0.14    0.14</time>
   <time name="orth">    0.00    0.00</time>
   <time name="total">    0.33    0.34</time>
   <energy>
    <i name="e_fr_energy">    -24.01030978 </i>
    <i name="e_wo_entrp">    -24.01030978 </i>
    <i name="e_0_energy">    -24.01030978 </i>
   </energy>
  </scstep>
  <scstep>
   <time name="diag">    0.03    0.03</time>
   <time name="diis">    0.12    0.12</time>
   <time name="orth">    0.00    0.00</time>
   <time name="total">    0.30    0.30</time>
   <energy>
    <i name="e_fr_energy">    -24.01030982 </i>
    <i name="e_wo_entrp">    -24.01030982 </i>
    <i name="e_0_energy">    -24.01030982 </i>
   </energy>
  </scstep>
  <scstep>
   <time name="diag">    0.03    0.03</time>
   <time name="diis">    0.11    0.11</time>
   <time name="orth">    0.00    0.00</time>
   <time name="total">    0.27    0.28</time>
   <energy>
    <i name="alphaZ">      0.23743361 </i>
    <i name="ewald">    131.18484779 </i>
    <i name="hartreedc">   -286.74191154 </i>
    <i name="XCdc">     24.81302274 </i>
    <i name="pawpsdc">    476.45435641 </i>
    <i name="pawaedc">   -477.24740730 </i>
    <i name="eentropy">     -0.00000000 </i>
    <i name="bandstr">    -89.75240687 </i>
    <i name="atom">    197.04175453 </i>
    <i name="e_fr_energy">    -24.01031063 </i>
    <i name="e_wo_entrp">    -24.01031063 </i>
    <i name="e_0_energy">    -24.01031063 </i>
   </energy>
  </scstep>
  <structure>
   <crystal>
    <varray name="basis" >
     <v>      10.24943435       0.00000000       0.00000000 </v>
     <v>       0.01212352       9.76950516       0.00000000 </v>
     <v>      -0.01890041       0.12368531      10.18944521 </v>
    </varray>
    <i name="volume">   1020.28852638 </i>
    <varray name="rec_basis" >
     <v>       0.09756636      -0.00012108       0.00018245 </v>
     <v>       0.00000000       0.10235933      -0.00124250 </v>
     <v>       0.00000000       0.00000000       0.09814077 </v>
    </varray>
   </crystal>
   <varray name="positions" >
    <v>       0.53736237       0.40705064       0.36336590 </v>
    <v>       0.39964226       0.48076247       0.43834453 </v>
    <v>       0.55213185       0.56876624       0.44218685 </v>
    <v>       0.52779597       0.41533433       0.53771226 </v>
    <v>       0.50300232       0.46718024       0.44523079 </v>
   </varray>
  </structure>
  <varray name="forces" >
   <v>       0.12522947      -0.24269507      -0.28743311 </v>
   <v>      -0.92475859       0.13091873      -0.05407107 </v>
   <v>      -0.24774968      -0.41841543       0.02003353 </v>
   <v>       0.01908944      -0.06509704       0.08043158 </v>
   <v>       1.02811333       0.59522142       0.24091612 </v>
  </varray>
  <varray name="stress" >
   <v>       0.79585196      -0.70076493      -0.02231502 </v>
   <v>      -0.70076493      -0.94621696       0.22635691 </v>
   <v>      -0.02231502       0.22635690      -0.10993082 </v>
  </varray>
  <energy>
   <i name="e_fr_energy">    -24.01031063 </i>
   <i name="e_wo_entrp">    -24.01031063 </i>
   <i name="e_0_energy">     -0.00000000 </i>
   <i name="kinetic">      0.00728602 </i>
   <i name="lattice kinetic">      0.00000000 </i>
   <i name="nosepot">      0.00000000 </i>
   <i name="nosekinetic">      0.00000000 </i>
   <i name="total">    -24.00302461 </i>
  </energy>
  <dos>
   <i name="efermi">     -8.25513070 </i>
   <total>
    <array>
     <dimension dim="1">gridpoints</dimension>
     <dimension dim="2">spin</dimension>
     <field>energy</field>
     <field>total</field>
     <field>integrated</field>
     <set>
      <set comment="spin 1">
       <r>   -18.9356     0.0000     0.0000 </r>
       <r>   -18.8635     0.0000     0.0000 </r>
       <r>   -18.7913     0.0000     0.0000 </r>
       <r>   -18.7192     0.0000     0.0000 </r>
       <r>   -18.6470     0.0000     0.0000 </r>
       <r>   -18.5748     0.0000     0.0000 </r>
       <r>   -18.5027     0.0000     0.0000 </r>
       <r>   -18.4305     0.0000     0.0000 </r>
       <r>   -18.3583     0.0000     0.0000 </r>
       <r>   -18.2862     0.0000     0.0000 </r>
       <r>   -18.2140     0.0000     0.0000 </r>
       <r>   -18.1418     0.0000     0.0000 </r>
       <r>   -18.0697     0.0000     0.0000 </r>
       <r>   -17.9975     0.0000     0.0000 </r>
       <r>   -17.9253     0.0000     0.0000 </r>
       <r>   -17.8532     0.0000     0.0000 </r>
       <r>   -17.7810     0.0000     0.0000 </r>
       <r>   -17.7088     0.0000     0.0000 </r>
       <r>   -17.6367     0.0001     0.0000 </r>
       <r>   -17.5645     0.0010     0.0001 </r>
       <r>   -17.4924     0.0091     0.0007 </r>
       <r>   -17.4202     0.0654     0.0054 </r>
       <r>   -17.3480     0.3666     0.0318 </r>
       <r>   -17.2759     1.5935     0.1465 </r>
       <r>   -17.2037     5.3742     0.5331 </r>
       <r>   -17.1315    14.0661     1.5452 </r>
       <r>   -17.0594    28.5751     3.6011 </r>
       <r>   -16.9872    45.0618     6.8432 </r>
       <r>   -16.9150    55.1673    10.8122 </r>
       <r>   -16.8429    52.4364    14.5846 </r>
       <r>   -16.7707    38.6969    17.3685 </r>
       <r>   -16.6985    22.1723    18.9636 </r>
       <r>   -16.6264     9.8632    19.6731 </r>
       <r>   -16.5542     3.4062    19.9181 </r>
       <r>   -16.4820     0.9131    19.9838 </r>
       <r>   -16.4099     0.1900    19.9975 </r>
       <r>   -16.3377     0.0307    19.9997 </r>
       <r>   -16.2656     0.0038    20.0000 </r>
       <r>   -16.1934     0.0004    20.0000 </r>
       <r>   -16.1212     0.0000    20.0000 </r>
       <r>   -16.0491     0.0000    20.0000 </r>
       <r>   -15.9769     0.0000    20.0000 </r>
       <r>   -15.9047     0.0000    20.0000 </r>
       <r>   -15.8326     0.0000    20.0000 </r>
       <r>   -15.7604     0.0000    20.0000 </r>
       <r>   -15.6882     0.0000    20.0000 </r>
       <r>   -15.6161     0.0000    20.0000 </r>
       <r>   -15.5439     0.0000    20.0000 </r>
       <r>   -15.4717     0.0000    20.0000 </r>
       <r>   -15.3996     0.0000    20.0000 </r>
       <r>   -15.3274     0.0000    20.0000 </r>
       <r>   -15.2552     0.0000    20.0000 </r>
       <r>   -15.1831     0.0000    20.0000 </r>
       <r>   -15.1109     0.0000    20.0000 </r>
       <r>   -15.0388     0.0000    20.0000 </r>
       <r>   -14.9666     0.0000    20.0000 </r>
       <r>   -14.8944     0.0000    20.0000 </r>
       <r>   -14.8223     0.0000    20.0000 </r>
       <r>   -14.7501     0.0000    20.0000 </r>
       <r>   -14.6779     0.0000    20.0000 </r>
       <r>   -14.6058     0.0000    20.0000 </r>
       <r>   -14.5336     0.0000    20.0000 </r>
       <r>   -14.4614     0.0000    20.0000 </r>
       <r>   -14.3893     0.0000    20.0000 </r>
       <r>   -14.3171     0.0000    20.0000 </r>
       <r>   -14.2449     0.0000    20.0000 </r>
       <r>   -14.1728     0.0000    20.0000 </r>
       <r>   -14.1006     0.0000    20.0000 </r>
       <r>   -14.0284     0.0000    20.0000 </r>
       <r>   -13.9563     0.0000    20.0000 </r>
       <r>   -13.8841     0.0000    20.0000 </r>
       <r>   -13.8120     0.0000    20.0000 </r>
       <r>   -13.7398     0.0000    20.0000 </r>
       <r>   -13.6676     0.0000    20.0000 </r>
       <r>   -13.5955     0.0000    20.0000 </r>
       <r>   -13.5233     0.0000    20.0000 </r>
       <r>   -13.4511     0.0000    20.0000 </r>
       <r>   -13.3790     0.0000    20.0000 </r>
       <r>   -13.3068     0.0000    20.0000 </r>
       <r>   -13.2346     0.0000    20.0000 </r>
       <r>   -13.1625     0.0000    20.0000 </r>
       <r>   -13.0903     0.0000    20.0000 </r>
       <r>   -13.0181     0.0000    20.0000 </r>
       <r>   -12.9460     0.0000    20.0000 </r>
       <r>   -12.8738     0.0000    20.0000 </r>
       <r>   -12.8016     0.0000    20.0000 </r>
       <r>   -12.7295     0.0000    20.0000 </r>
       <r>   -12.6573     0.0000    20.0000 </r>
       <r>   -12.5852     0.0000    20.0000 </r>
       <r>   -12.5130     0.0000    20.0000 </r>
       <r>   -12.4408     0.0000    20.0000 </r>
       <r>   -12.3687     0.0000    20.0000 </r>
       <r>   -12.2965     0.0000    20.0000 </r>
       <r>   -12.2243     0.0000    20.0000 </r>
       <r>   -12.1522     0.0000    20.0000 </r>
       <r>   -12.0800     0.0000    20.0000 </r>
       <r>   -12.0078     0.0000    20.0000 </r>
       <r>   -11.9357     0.0000    20.0000 </r>
       <r>   -11.8635     0.0000    20.0000 </r>
       <r>   -11.7913     0.0000    20.0000 </r>
       <r>   -11.7192     0.0000    20.0000 </r>
       <r>   -11.6470     0.0000    20.0000 </r>
       <r>   -11.5748     0.0000    20.0000 </r>
       <r>   -11.5027     0.0000    20.0000 </r>
       <r>   -11.4305     0.0000    20.0000 </r>
       <r>   -11.3584     0.0000    20.0000 </r>
       <r>   -11.2862     0.0000    20.0000 </r>
       <r>   -11.2140     0.0000    20.0000 </r>
       <r>   -11.1419     0.0000    20.0000 </r>
       <r>   -11.0697     0.0000    20.0000 </r>
       <r>   -10.9975     0.0000    20.0000 </r>
       <r>   -10.9254     0.0000    20.0000 </r>
       <r>   -10.8532     0.0000    20.0000 </r>
       <r>   -10.7810     0.0000    20.0000 </r>
       <r>   -10.7089     0.0000    20.0000 </r>
       <r>   -10.6367     0.0000    20.0000 </r>
       <r>   -10.5645     0.0000    20.0000 </r>
       <r>   -10.4924     0.0000    20.0000 </r>
       <r>   -10.4202     0.0000    20.0000 </r>
       <r>   -10.3480     0.0000    20.0000 </r>
       <r>   -10.2759     0.0000    20.0000 </r>
       <r>   -10.2037     0.0000    20.0000 </r>
       <r>   -10.1316     0.0000    20.0000 </r>
       <r>   -10.0594     0.0003    20.0000 </r>
       <r>    -9.9872     0.0037    20.0003 </r>
       <r>    -9.9151     0.0311    20.0025 </r>
       <r>    -9.8429     0.2062    20.0174 </r>
       <r>    -9.7707     1.0693    20.0943 </r>
       <r>    -9.6986     4.3402    20.4066 </r>
       <r>    -9.6264    13.8179    21.4009 </r>
       <r>    -9.5542    34.6288    23.8924 </r>
       <r>    -9.4821    68.6936    28.8347 </r>
       <r>    -9.4099   108.7712    36.6602 </r>
       <r>    -9.3377   139.0755    46.6657 </r>
       <r>    -9.2656   145.5947    57.1400 </r>
       <r>    -9.1934   126.4367    66.2362 </r>
       <r>    -9.1212    91.7656    72.8381 </r>
       <r>    -9.0491    55.5676    76.8359 </r>
       <r>    -8.9769    27.7870    78.8351 </r>
       <r>    -8.9048    11.3094    79.6488 </r>
       <r>    -8.8326     3.6936    79.9146 </r>
       <r>    -8.7604     0.9570    79.9834 </r>
       <r>    -8.6883     0.1951    79.9975 </r>
       <r>    -8.6161     0.0311    79.9997 </r>
       <r>    -8.5439     0.0039    80.0000 </r>
       <r>    -8.4718     0.0004    80.0000 </r>
       <r>    -8.3996     0.0000    80.0000 </r>
       <r>    -8.3274     0.0000    80.0000 </r>
       <r>    -8.2553     0.0000    80.0000 </r>
       <r>    -8.1831     0.0000    80.0000 </r>
       <r>    -8.1109     0.0000    80.0000 </r>
       <r>    -8.0388     0.0000    80.0000 </r>
       <r>    -7.9666     0.0000    80.0000 </r>
       <r>    -7.8944     0.0000    80.0000 </r>
       <r>    -7.8223     0.0000    80.0000 </r>
       <r>    -7.7501     0.0000    80.0000 </r>
       <r>    -7.6780     0.0000    80.0000 </r>
       <r>    -7.6058     0.0000    80.0000 </r>
       <r>    -7.5336     0.0000    80.0000 </r>
       <r>    -7.4615     0.0000    80.0000 </r>
       <r>    -7.3893     0.0000    80.0000 </r>
       <r>    -7.3171     0.0000    80.0000 </r>
       <r>    -7.2450     0.0000    80.0000 </r>
       <r>    -7.1728     0.0000    80.0000 </r>
       <r>    -7.1006     0.0000    80.0000 </r>
       <r>    -7.0285     0.0000    80.0000 </r>
       <r>    -6.9563     0.0000    80.0000 </r>
       <r>    -6.8841     0.0000    80.0000 </r>
       <r>    -6.8120     0.0000    80.0000 </r>
       <r>    -6.7398     0.0000    80.0000 </r>
       <r>    -6.6676     0.0000    80.0000 </r>
       <r>    -6.5955     0.0000    80.0000 </r>
       <r>    -6.5233     0.0000    80.0000 </r>
       <r>    -6.4512     0.0000    80.0000 </r>
       <r>    -6.3790     0.0000    80.0000 </r>
       <r>    -6.3068     0.0000    80.0000 </r>
       <r>    -6.2347     0.0000    80.0000 </r>
       <r>    -6.1625     0.0000    80.0000 </r>
       <r>    -6.0903     0.0000    80.0000 </r>
       <r>    -6.0182     0.0000    80.0000 </r>
       <r>    -5.9460     0.0000    80.0000 </r>
       <r>    -5.8738     0.0000    80.0000 </r>
       <r>    -5.8017     0.0000    80.0000 </r>
       <r>    -5.7295     0.0000    80.0000 </r>
       <r>    -5.6573     0.0000    80.0000 </r>
       <r>    -5.5852     0.0000    80.0000 </r>
       <r>    -5.5130     0.0000    80.0000 </r>
       <r>    -5.4408     0.0000    80.0000 </r>
       <r>    -5.3687     0.0000    80.0000 </r>
       <r>    -5.2965     0.0000    80.0000 </r>
       <r>    -5.2244     0.0000    80.0000 </r>
       <r>    -5.1522     0.0000    80.0000 </r>
       <r>    -5.0800     0.0000    80.0000 </r>
       <r>    -5.0079     0.0000    80.0000 </r>
       <r>    -4.9357     0.0000    80.0000 </r>
       <r>    -4.8635     0.0000    80.0000 </r>
       <r>    -4.7914     0.0000    80.0000 </r>
       <r>    -4.7192     0.0000    80.0000 </r>
       <r>    -4.6470     0.0000    80.0000 </r>
       <r>    -4.5749     0.0000    80.0000 </r>
       <r>    -4.5027     0.0000    80.0000 </r>
       <r>    -4.4305     0.0000    80.0000 </r>
       <r>    -4.3584     0.0000    80.0000 </r>
       <r>    -4.2862     0.0000    80.0000 </r>
       <r>    -4.2140     0.0000    80.0000 </r>
       <r>    -4.1419     0.0000    80.0000 </r>
       <r>    -4.0697     0.0000    80.0000 </r>
       <r>    -3.9976     0.0000    80.0000 </r>
       <r>    -3.9254     0.0000    80.0000 </r>
       <r>    -3.8532     0.0000    80.0000 </r>
       <r>    -3.7811     0.0000    80.0000 </r>
       <r>    -3.7089     0.0000    80.0000 </r>
       <r>    -3.6367     0.0000    80.0000 </r>
       <r>    -3.5646     0.0000    80.0000 </r>
       <r>    -3.4924     0.0000    80.0000 </r>
       <r>    -3.4202     0.0000    80.0000 </r>
       <r>    -3.3481     0.0000    80.0000 </r>
       <r>    -3.2759     0.0000    80.0000 </r>
       <r>    -3.2037     0.0000    80.0000 </r>
       <r>    -3.1316     0.0000    80.0000 </r>
       <r>    -3.0594     0.0000    80.0000 </r>
       <r>    -2.9872     0.0000    80.0000 </r>
       <r>    -2.9151     0.0000    80.0000 </r>
       <r>    -2.8429     0.0000    80.0000 </r>
       <r>    -2.7708     0.0000    80.0000 </r>
       <r>    -2.6986     0.0000    80.0000 </r>
       <r>    -2.6264     0.0000    80.0000 </r>
       <r>    -2.5543     0.0000    80.0000 </r>
       <r>    -2.4821     0.0000    80.0000 </r>
       <r>    -2.4099     0.0000    80.0000 </r>
       <r>    -2.3378     0.0000    80.0000 </r>
[...]
       <r>     0.2602     5.0857   100.4831 </r>
       <r>     0.3323    15.0852   101.5683 </r>
       <r>     0.4045    36.1659   104.1699 </r>
       <r>     0.4767    70.1580   109.2170 </r>
       <r>     0.5488   110.8480   117.1915 </r>
       <r>     0.6210   143.1543   127.4905 </r>
       <r>     0.6932   151.0013   138.3543 </r>
       <r>     0.7653   129.4774   147.6698 </r>
       <r>     0.8375    89.6016   154.1165 </r>
       <r>     0.9096    49.6528   157.6890 </r>
       <r>     0.9818    21.8765   159.2631 </r>
       <r>     1.0540     7.6187   159.8113 </r>
       <r>     1.1261     2.0878   159.9615 </r>
       <r>     1.1983     0.4487   159.9938 </r>
       <r>     1.2705     0.0755   159.9992 </r>
       <r>     1.3426     0.0099   159.9999 </r>
       <r>     1.4148     0.0010   160.0000 </r>
       <r>     1.4870     0.0001   160.0000 </r>
       <r>     1.5591     0.0000   160.0000 </r>
       <r>     1.6313     0.0000   160.0000 </r>
       <r>     1.7035     0.0000   160.0000 </r>
       <r>     1.7756     0.0000   160.0000 </r>
       <r>     1.8478     0.0000   160.0000 </r>
       <r>     1.9200     0.0000   160.0000 </r>
       <r>     1.9921     0.0000   160.0000 </r>
       <r>     2.0643     0.0000   160.0000 </r>
       <r>     2.1364     0.0000   160.0000 </r>
       <r>     2.2086     0.0000   160.0000 </r>
       <r>     2.2808     0.0000   160.0000 </r>
       <r>     2.3529     0.0000   160.0000 </r>
       <r>     2.4251     0.0000   160.0000 </r>
       <r>     2.4973     0.0000   160.0000 </r>
       <r>     2.5694     0.0000   160.0000 </r>
       <r>     2.6416     0.0000   160.0000 </r>
       <r>     2.7138     0.0000   160.0000 </r>
      </set>
     </set>
    </array>
   </total>
  </dos>
  <time name="totalsc">    2.04    2.10</time>
  <eigenvalues>
   <array>
    <dimension dim="1">band</dimension>
    <dimension dim="2">kpoint</dimension>
    <dimension dim="3">spin</dimension>
    <field>eigene</field>
    <field>occ</field>
    <set>
     <set comment="spin 1">
      <set comment="kpoint 1">
       <r>  -16.9414    1.0000 </r>
       <r>   -9.4168    1.0000 </r>
       <r>   -9.3255    1.0000 </r>
       <r>   -9.2059    1.0000 </r>
       <r>   -0.3075    0.0000 </r>
       <r>    0.5524    0.0000 </r>
       <r>    0.6666    0.0000 </r>
       <r>    0.7066    0.0000 </r>
      </set>
      <set comment="kpoint 2">
       <r>  -16.9414    1.0000 </r>
       <r>   -9.4169    1.0000 </r>
       <r>   -9.3255    1.0000 </r>
       <r>   -9.2059    1.0000 </r>
       <r>   -0.3082    0.0000 </r>
       <r>    0.5541    0.0000 </r>
       <r>    0.6622    0.0000 </r>
       <r>    0.7079    0.0000 </r>
      </set>
      <set comment="kpoint 3">
       <r>  -16.9414    1.0000 </r>
       <r>   -9.4169    1.0000 </r>
       <r>   -9.3255    1.0000 </r>
       <r>   -9.2059    1.0000 </r>
       <r>   -0.3051    0.0000 </r>
       <r>    0.5464    0.0000 </r>
       <r>    0.6578    0.0000 </r>
       <r>    0.7012    0.0000 </r>
      </set>
      <set comment="kpoint 4">
       <r>  -16.9414    1.0000 </r>
       <r>   -9.4168    1.0000 </r>
       <r>   -9.3255    1.0000 </r>
       <r>   -9.2059    1.0000 </r>
       <r>   -0.3052    0.0000 </r>
       <r>    0.5465    0.0000 </r>
       <r>    0.6655    0.0000 </r>
       <r>    0.6984    0.0000 </r>
      </set>
     </set>
    </set>
   </array>
  </eigenvalues>
  <separator name="orbital magnetization" >
   <v name="MAGDIPOLOUT">      0.00000000      0.00000000      0.00000000</v>
  </separator>
  <dos>
   <i name="efermi">     -8.26100893 </i>
   <total>
    <array>
     <dimension dim="1">gridpoints</dimension>
     <dimension dim="2">spin</dimension>
     <field>energy</field>
     <field>total</field>
     <field>integrated</field>
     <set>
      <set comment="spin 1">
       <r>   -18.9414     0.0000     0.0000 </r>
       <r>   -18.8692     0.0000     0.0000 </r>
       <r>   -18.7971     0.0000     0.0000 </r>
       <r>   -18.7249     0.0000     0.0000 </r>
       <r>   -18.6528     0.0000     0.0000 </r>
       <r>   -18.5806     0.0000     0.0000 </r>
       <r>   -18.5084     0.0000     0.0000 </r>
       <r>   -18.4363     0.0000     0.0000 </r>
       <r>   -18.3641     0.0000     0.0000 </r>
       <r>   -18.2919     0.0000     0.0000 </r>
       <r>   -18.2198     0.0000     0.0000 </r>
       <r>   -18.1476     0.0000     0.0000 </r>
       <r>   -18.0754     0.0000     0.0000 </r>
       <r>   -18.0033     0.0000     0.0000 </r>
       <r>   -17.9311     0.0000     0.0000 </r>
       <r>   -17.8589     0.0000     0.0000 </r>
       <r>   -17.7868     0.0000     0.0000 </r>
       <r>   -17.7146     0.0000     0.0000 </r>
       <r>   -17.6425     0.0000     0.0000 </r>
       <r>   -17.5703     0.0001     0.0000 </r>
       <r>   -17.4981     0.0010     0.0001 </r>
       <r>   -17.4260     0.0073     0.0006 </r>
       <r>   -17.3538     0.0406     0.0035 </r>
       <r>   -17.2816     0.1745     0.0161 </r>
       <r>   -17.2095     0.5804     0.0580 </r>
       <r>   -17.1373     1.4959     0.1660 </r>
       <r>   -17.0651     2.9877     0.3816 </r>
       <r>   -16.9930     4.6248     0.7153 </r>
       <r>   -16.9208     5.5486     1.1157 </r>
       <r>   -16.8486     5.1596     1.4881 </r>
       <r>   -16.7765     3.7187     1.7564 </r>
       <r>   -16.7043     2.0773     1.9063 </r>
       <r>   -16.6322     0.8992     1.9712 </r>
       <r>   -16.5600     0.3016     1.9930 </r>
       <r>   -16.4878     0.0784     1.9987 </r>
       <r>   -16.4157     0.0158     1.9998 </r>
       <r>   -16.3435     0.0025     2.0000 </r>
       <r>   -16.2713     0.0003     2.0000 </r>
       <r>   -16.1992     0.0000     2.0000 </r>
       <r>   -16.1270     0.0000     2.0000 </r>
       <r>   -16.0548     0.0000     2.0000 </r>
       <r>   -15.9827     0.0000     2.0000 </r>
       <r>   -15.9105     0.0000     2.0000 </r>
       <r>   -15.8383     0.0000     2.0000 </r>
       <r>   -15.7662     0.0000     2.0000 </r>
       <r>   -15.6940     0.0000     2.0000 </r>
       <r>   -15.6218     0.0000     2.0000 </r>
       <r>   -15.5497     0.0000     2.0000 </r>
       <r>   -15.4775     0.0000     2.0000 </r>
       <r>   -15.4054     0.0000     2.0000 </r>
       <r>   -15.3332     0.0000     2.0000 </r>
       <r>   -15.2610     0.0000     2.0000 </r>
       <r>   -15.1889     0.0000     2.0000 </r>
       <r>   -15.1167     0.0000     2.0000 </r>
       <r>   -15.0445     0.0000     2.0000 </r>
       <r>   -14.9724     0.0000     2.0000 </r>
       <r>   -14.9002     0.0000     2.0000 </r>
       <r>   -14.8280     0.0000     2.0000 </r>
       <r>   -14.7559     0.0000     2.0000 </r>
       <r>   -14.6837     0.0000     2.0000 </r>
       <r>   -14.6115     0.0000     2.0000 </r>
       <r>   -14.5394     0.0000     2.0000 </r>
       <r>   -14.4672     0.0000     2.0000 </r>
       <r>   -14.3951     0.0000     2.0000 </r>
       <r>   -14.3229     0.0000     2.0000 </r>
       <r>   -14.2507     0.0000     2.0000 </r>
       <r>   -14.1786     0.0000     2.0000 </r>
       <r>   -14.1064     0.0000     2.0000 </r>
       <r>   -14.0342     0.0000     2.0000 </r>
       <r>   -13.9621     0.0000     2.0000 </r>
       <r>   -13.8899     0.0000     2.0000 </r>
       <r>   -13.8177     0.0000     2.0000 </r>
       <r>   -13.7456     0.0000     2.0000 </r>
       <r>   -13.6734     0.0000     2.0000 </r>
       <r>   -13.6012     0.0000     2.0000 </r>
       <r>   -13.5291     0.0000     2.0000 </r>
       <r>   -13.4569     0.0000     2.0000 </r>
       <r>   -13.3848     0.0000     2.0000 </r>
       <r>   -13.3126     0.0000     2.0000 </r>
       <r>   -13.2404     0.0000     2.0000 </r>
       <r>   -13.1683     0.0000     2.0000 </r>
       <r>   -13.0961     0.0000     2.0000 </r>
       <r>   -13.0239     0.0000     2.0000 </r>
       <r>   -12.9518     0.0000     2.0000 </r>
       <r>   -12.8796     0.0000     2.0000 </r>
       <r>   -12.8074     0.0000     2.0000 </r>
       <r>   -12.7353     0.0000     2.0000 </r>
       <r>   -12.6631     0.0000     2.0000 </r>
       <r>   -12.5909     0.0000     2.0000 </r>
       <r>   -12.5188     0.0000     2.0000 </r>
       <r>   -12.4466     0.0000     2.0000 </r>
       <r>   -12.3745     0.0000     2.0000 </r>
       <r>   -12.3023     0.0000     2.0000 </r>
       <r>   -12.2301     0.0000     2.0000 </r>
       <r>   -12.1580     0.0000     2.0000 </r>
       <r>   -12.0858     0.0000     2.0000 </r>
       <r>   -12.0136     0.0000     2.0000 </r>
       <r>   -11.9415     0.0000     2.0000 </r>
       <r>   -11.8693     0.0000     2.0000 </r>
       <r>   -11.7971     0.0000     2.0000 </r>
       <r>   -11.7250     0.0000     2.0000 </r>
       <r>   -11.6528     0.0000     2.0000 </r>
       <r>   -11.5806     0.0000     2.0000 </r>
       <r>   -11.5085     0.0000     2.0000 </r>
       <r>   -11.4363     0.0000     2.0000 </r>
       <r>   -11.3641     0.0000     2.0000 </r>
       <r>   -11.2920     0.0000     2.0000 </r>
       <r>   -11.2198     0.0000     2.0000 </r>
       <r>   -11.1477     0.0000     2.0000 </r>
       <r>   -11.0755     0.0000     2.0000 </r>
       <r>   -11.0033     0.0000     2.0000 </r>
       <r>   -10.9312     0.0000     2.0000 </r>
       <r>   -10.8590     0.0000     2.0000 </r>
       <r>   -10.7868     0.0000     2.0000 </r>
       <r>   -10.7147     0.0000     2.0000 </r>
       <r>   -10.6425     0.0000     2.0000 </r>
       <r>   -10.5703     0.0000     2.0000 </r>
       <r>   -10.4982     0.0000     2.0000 </r>
       <r>   -10.4260     0.0000     2.0000 </r>
       <r>   -10.3538     0.0000     2.0000 </r>
       <r>   -10.2817     0.0000     2.0000 </r>
       <r>   -10.2095     0.0000     2.0000 </r>
       <r>   -10.1374     0.0000     2.0000 </r>
       <r>   -10.0652     0.0001     2.0000 </r>
       <r>    -9.9930     0.0006     2.0000 </r>
       <r>    -9.9209     0.0048     2.0004 </r>
       <r>    -9.8487     0.0290     2.0025 </r>
       <r>    -9.7765     0.1383     2.0125 </r>
       <r>    -9.7044     0.5183     2.0499 </r>
       <r>    -9.6322     1.5333     2.1605 </r>
       <r>    -9.5600     3.6074     2.4208 </r>
       <r>    -9.4879     6.8149     2.9126 </r>
       <r>    -9.4157    10.4665     3.6679 </r>
       <r>    -9.3435    13.2573     4.6246 </r>
       <r>    -9.2714    14.0378     5.6377 </r>
       <r>    -9.1992    12.5299     6.5419 </r>
       <r>    -9.1271     9.4211     7.2217 </r>
       <r>    -9.0549     5.9089     7.6482 </r>
       <r>    -8.9827     3.0452     7.8679 </r>
       <r>    -8.9106     1.2695     7.9595 </r>
       <r>    -8.8384     0.4225     7.9900 </r>
       <r>    -8.7662     0.1111     7.9980 </r>
       <r>    -8.6941     0.0229     7.9997 </r>
       <r>    -8.6219     0.0037     8.0000 </r>
       <r>    -8.5497     0.0005     8.0000 </r>
       <r>    -8.4776     0.0000     8.0000 </r>
       <r>    -8.4054     0.0000     8.0000 </r>
       <r>    -8.3332     0.0000     8.0000 </r>
       <r>    -8.2611     0.0000     8.0000 </r>
       <r>    -8.1889     0.0000     8.0000 </r>
       <r>    -8.1168     0.0000     8.0000 </r>
       <r>    -8.0446     0.0000     8.0000 </r>
       <r>    -7.9724     0.0000     8.0000 </r>
       <r>    -7.9003     0.0000     8.0000 </r>
       <r>    -7.8281     0.0000     8.0000 </r>
       <r>    -7.7559     0.0000     8.0000 </r>
       <r>    -7.6838     0.0000     8.0000 </r>
       <r>    -7.6116     0.0000     8.0000 </r>
       <r>    -7.5394     0.0000     8.0000 </r>
       <r>    -7.4673     0.0000     8.0000 </r>
       <r>    -7.3951     0.0000     8.0000 </r>
       <r>    -7.3229     0.0000     8.0000 </r>
       <r>    -7.2508     0.0000     8.0000 </r>
       <r>    -7.1786     0.0000     8.0000 </r>
       <r>    -7.1064     0.0000     8.0000 </r>
       <r>    -7.0343     0.0000     8.0000 </r>
       <r>    -6.9621     0.0000     8.0000 </r>
       <r>    -6.8900     0.0000     8.0000 </r>
       <r>    -6.8178     0.0000     8.0000 </r>
       <r>    -6.7456     0.0000     8.0000 </r>
       <r>    -6.6735     0.0000     8.0000 </r>
       <r>    -6.6013     0.0000     8.0000 </r>
       <r>    -6.5291     0.0000     8.0000 </r>
       <r>    -6.4570     0.0000     8.0000 </r>
       <r>    -6.3848     0.0000     8.0000 </r>
       <r>    -6.3126     0.0000     8.0000 </r>
       <r>    -6.2405     0.0000     8.0000 </r>
       <r>    -6.1683     0.0000     8.0000 </r>
       <r>    -6.0961     0.0000     8.0000 </r>
       <r>    -6.0240     0.0000     8.0000 </r>
       <r>    -5.9518     0.0000     8.0000 </r>
       <r>    -5.8797     0.0000     8.0000 </r>
       <r>    -5.8075     0.0000     8.0000 </r>
       <r>    -5.7353     0.0000     8.0000 </r>
       <r>    -5.6632     0.0000     8.0000 </r>
       <r>    -5.5910     0.0000     8.0000 </r>
       <r>    -5.5188     0.0000     8.0000 </r>
       <r>    -5.4467     0.0000     8.0000 </r>
       <r>    -5.3745     0.0000     8.0000 </r>
       <r>    -5.3023     0.0000     8.0000 </r>
       <r>    -5.2302     0.0000     8.0000 </r>
       <r>    -5.1580     0.0000     8.0000 </r>
       <r>    -5.0858     0.0000     8.0000 </r>
       <r>    -5.0137     0.0000     8.0000 </r>
       <r>    -4.9415     0.0000     8.0000 </r>
       <r>    -4.8694     0.0000     8.0000 </r>
       <r>    -4.7972     0.0000     8.0000 </r>
       <r>    -4.7250     0.0000     8.0000 </r>
       <r>    -4.6529     0.0000     8.0000 </r>
       <r>    -4.5807     0.0000     8.0000 </r>
       <r>    -4.5085     0.0000     8.0000 </r>
       <r>    -4.4364     0.0000     8.0000 </r>
       <r>    -4.3642     0.0000     8.0000 </r>
       <r>    -4.2920     0.0000     8.0000 </r>
       <r>    -4.2199     0.0000     8.0000 </r>
       <r>    -4.1477     0.0000     8.0000 </r>
       <r>    -4.0755     0.0000     8.0000 </r>
       <r>    -4.0034     0.0000     8.0000 </r>
       <r>    -3.9312     0.0000     8.0000 </r>
       <r>    -3.8591     0.0000     8.0000 </r>
       <r>    -3.7869     0.0000     8.0000 </r>
       <r>    -3.7147     0.0000     8.0000 </r>
       <r>    -3.6426     0.0000     8.0000 </r>
       <r>    -3.5704     0.0000     8.0000 </r>
       <r>    -3.4982     0.0000     8.0000 </r>
       <r>    -3.4261     0.0000     8.0000 </r>
       <r>    -3.3539     0.0000     8.0000 </r>
       <r>    -3.2817     0.0000     8.0000 </r>
       <r>    -3.2096     0.0000     8.0000 </r>
       <r>    -3.1374     0.0000     8.0000 </r>
       <r>    -3.0652     0.0000     8.0000 </r>
       <r>    -2.9931     0.0000     8.0000 </r>
       <r>    -2.9209     0.0000     8.0000 </r>
       <r>    -2.8487     0.0000     8.0000 </r>
       <r>    -2.7766     0.0000     8.0000 </r>
       <r>    -2.7044     0.0000     8.0000 </r>
       <r>    -2.6323     0.0000     8.0000 </r>
       <r>    -2.5601     0.0000     8.0000 </r>
       <r>    -2.4879     0.0000     8.0000 </r>
       <r>    -2.4158     0.0000     8.0000 </r>
       <r>    -2.3436     0.0000     8.0000 </r>
       <r>    -2.2714     0.0000     8.0000 </r>
       <r>    -2.1993     0.0000     8.0000 </r>
       <r>    -2.1271     0.0000     8.0000 </r>
       <r>    -2.0549     0.0000     8.0000 </r>
       <r>    -1.9828     0.0000     8.0000 </r>
       <r>    -1.9106     0.0000     8.0000 </r>
       <r>    -1.8384     0.0000     8.0000 </r>
       <r>    -1.7663     0.0000     8.0000 </r>
       <r>    -1.6941     0.0000     8.0000 </r>
       <r>    -1.6220     0.0000     8.0000 </r>
       <r>    -1.5498     0.0000     8.0000 </r>
       <r>    -1.4776     0.0000     8.0000 </r>
       <r>    -1.4055     0.0000     8.0000 </r>
       <r>    -1.3333     0.0000     8.0000 </r>
       <r>    -1.2611     0.0000     8.0000 </r>
       <r>    -1.1890     0.0000     8.0000 </r>
       <r>    -1.1168     0.0000     8.0000 </r>
       <r>    -1.0446     0.0000     8.0000 </r>
       <r>    -0.9725     0.0000     8.0000 </r>
       <r>    -0.9003     0.0003     8.0000 </r>
       <r>    -0.8281     0.0028     8.0002 </r>
       <r>    -0.7560     0.0174     8.0015 </r>
       <r>    -0.6838     0.0852     8.0076 </r>
       <r>    -0.6117     0.3232     8.0310 </r>
       <r>    -0.5395     0.9495     8.0995 </r>
       <r>    -0.4673     2.1618     8.2555 </r>
       <r>    -0.3952     3.8143     8.5307 </r>
       <r>    -0.3230     5.2161     8.9072 </r>
       <r>    -0.2508     5.5289     9.3061 </r>
       <r>    -0.1787     4.5424     9.6339 </r>
       <r>    -0.1065     2.8926     9.8427 </r>
       <r>    -0.0343     1.4280     9.9457 </r>
       <r>     0.0378     0.5497     9.9854 </r>
       <r>     0.1100     0.1852     9.9988 </r>
       <r>     0.1822     0.1515    10.0097 </r>
       <r>     0.2543     0.4473    10.0420 </r>
       <r>     0.3265     1.3495    10.1394 </r>
       <r>     0.3986     3.3053    10.3779 </r>
       <r>     0.4708     6.5490    10.8505 </r>
       <r>     0.5430    10.5760    11.6137 </r>
       <r>     0.6151    13.9814    12.6227 </r>
       <r>     0.6873    15.1196    13.7138 </r>
       <r>     0.7595    13.3022    14.6737 </r>
       <r>     0.8316     9.4429    15.3552 </r>
       <r>     0.9038     5.3611    15.7420 </r>
       <r>     0.9760     2.4152    15.9163 </r>
       <r>     1.0481     0.8580    15.9782 </r>
       <r>     1.1203     0.2392    15.9955 </r>
       <r>     1.1925     0.0522    15.9993 </r>
       <r>     1.2646     0.0089    15.9999 </r>
       <r>     1.3368     0.0012    16.0000 </r>
       <r>     1.4090     0.0001    16.0000 </r>
       <r>     1.4811     0.0000    16.0000 </r>
       <r>     1.5533     0.0000    16.0000 </r>
       <r>     1.6254     0.0000    16.0000 </r>
       <r>     1.6976     0.0000    16.0000 </r>
       <r>     1.7698     0.0000    16.0000 </r>
       <r>     1.8419     0.0000    16.0000 </r>
       <r>     1.9141     0.0000    16.0000 </r>
       <r>     1.9863     0.0000    16.0000 </r>
       <r>     2.0584     0.0000    16.0000 </r>
       <r>     2.1306     0.0000    16.0000 </r>
       <r>     2.2028     0.0000    16.0000 </r>
       <r>     2.2749     0.0000    16.0000 </r>
       <r>     2.3471     0.0000    16.0000 </r>
       <r>     2.4193     0.0000    16.0000 </r>
       <r>     2.4914     0.0000    16.0000 </r>
       <r>     2.5636     0.0000    16.0000 </r>
       <r>     2.6357     0.0000    16.0000 </r>
       <r>     2.7079     0.0000    16.0000 </r>
      </set>
     </set>
    </array>
   </total>
  </dos>
 </calculation>
 <structure name="finalpos" >
  <crystal>
   <varray name="basis" >
    <v>      10.24943435       0.00000000       0.00000000 </v>
    <v>       0.01212352       9.76950516       0.00000000 </v>
    <v>      -0.01890041       0.12368531      10.18944521 </v>
   </varray>
   <i name="volume">   1020.28852638 </i>
   <varray name="rec_basis" >
    <v>       0.09756636      -0.00012108       0.00018245 </v>
    <v>       0.00000000       0.10235933      -0.00124250 </v>
    <v>       0.00000000       0.00000000       0.09814077 </v>
   </varray>
  </crystal>
  <varray name="positions" >
   <v>       0.53724585       0.40689304       0.36355566 </v>
   <v>       0.39987040       0.48081158       0.43836766 </v>
   <v>       0.55194237       0.56897002       0.44218678 </v>
   <v>       0.52771335       0.41515728       0.53758577 </v>
   <v>       0.50301568       0.46718705       0.44522360 </v>
  </varray>
  <varray name="velocities" >
   <v>      -0.00011653      -0.00015761       0.00018976 </v>
   <v>       0.00022815       0.00004911       0.00002313 </v>
   <v>      -0.00018948       0.00020378      -0.00000007 </v>
   <v>      -0.00008262      -0.00017705      -0.00012649 </v>
   <v>       0.00001336       0.00000681      -0.00000719 </v>
  </varray>
 </structure>
</modeling>
