unknown system                          
           1
    10.249434    0.000000    0.000000
     0.012124    9.769505    0.000000
    -0.018900    0.123685   10.189445
   H    C 
   4   1
Direct configuration=     1
   0.53863484  0.40693130  0.36093464
   0.39429429  0.48105319  0.43796981
   0.55212606  0.56542175  0.44228325
   0.52839707  0.41612764  0.53883638
   0.50329207  0.46737838  0.44536279
Direct configuration=     2
   0.53858889  0.40695396  0.36102591
   0.39451143  0.48103470  0.43798391
   0.55215140  0.56555978  0.44227848
   0.52837840  0.41611084  0.53879824
   0.50327726  0.46736794  0.44535759
Direct configuration=     3
   0.53850006  0.40699632  0.36120183
   0.39492967  0.48099987  0.43801168
   0.55219686  0.56582464  0.44226945
   0.52834190  0.41607690  0.53872486
   0.50324909  0.46734809  0.44534749
Direct configuration=     4
   0.53837383  0.40705189  0.36145091
   0.39551929  0.48095230  0.43805121
   0.55225341  0.56619402  0.44225708
   0.52828922  0.41602557  0.53862002
   0.50321018  0.46732094  0.44533322
Direct configuration=     5
   0.53821811  0.40711135  0.36175655
   0.39623697  0.48089722  0.43809976
   0.55230920  0.56663809  0.44224259
   0.52822282  0.41595637  0.53848941
   0.50316428  0.46728936  0.44531582
Direct configuration=     6
   0.53804267  0.40716329  0.36209824
   0.39702786  0.48084130  0.43815384
   0.55235078  0.56712202  0.44222740
   0.52814567  0.41586890  0.53833995
   0.50311600  0.46725669  0.44529657
Direct configuration=     7
   0.53785846  0.40719517  0.36245307
   0.39782894  0.48079216  0.43820946
   0.55236464  0.56760939  0.44221297
   0.52806108  0.41576286  0.53817940
   0.50307053  0.46722638  0.44527697
Direct configuration=     8
   0.53767677  0.40719431  0.36279725
   0.39857334  0.48075782  0.43826240
   0.55233865  0.56806533  0.44220067
   0.52797248  0.41563815  0.53801600
   0.50303322  0.46720173  0.44525853
Direct configuration=     9
   0.53750832  0.40714919  0.36310810
   0.39919642  0.48074585  0.43830860
   0.55226315  0.56845910  0.44219167
   0.52788313  0.41549507  0.53785780
   0.50300910  0.46718561  0.44524273
Direct configuration=    10
   0.53736237  0.40705064  0.36336590
   0.39964226  0.48076247  0.43834453
   0.55213185  0.56876624  0.44218685
   0.52779597  0.41533433  0.53771226
   0.50300232  0.46718024  0.44523079
