   5   5   0   0
  0.2126993E+03  0.1005164E-08  0.1030066E-08  0.1027842E-08  0.5000000E-15
  1.000000000000000E-004
  CAR 
 unknown system                          
      2.69998456    -19.04045019  301     -8.31509828      1.00000000
    -19.040  0.0000E+00  0.0000E+00
    -18.968  0.0000E+00  0.0000E+00
    -18.896  0.0000E+00  0.0000E+00
    -18.823  0.0000E+00  0.0000E+00
    -18.751  0.0000E+00  0.0000E+00
    -18.678  0.0000E+00  0.0000E+00
    -18.606  0.0000E+00  0.0000E+00
    -18.533  0.0000E+00  0.0000E+00
    -18.461  0.0000E+00  0.0000E+00
    -18.388  0.0000E+00  0.0000E+00
    -18.316  0.0000E+00  0.0000E+00
    -18.243  0.0000E+00  0.0000E+00
    -18.171  0.1234E-13  0.8882E-15
    -18.098  0.6825E-12  0.5001E-13
    -18.026  0.2939E-10  0.2165E-11
    -17.953  0.9803E-09  0.7272E-10
    -17.881  0.2532E-07  0.1895E-08
    -17.808  0.5066E-06  0.3835E-07
    -17.736  0.7855E-05  0.6036E-06
    -17.664  0.9439E-04  0.7395E-05
    -17.591  0.8795E-03  0.7067E-04
    -17.519  0.6356E-02  0.5279E-03
    -17.446  0.3564E-01  0.3092E-02
    -17.374  0.1551E+00  0.1425E-01
    -17.301  0.5242E+00  0.5194E-01
    -17.229  0.1376E+01  0.1509E+00
    -17.156  0.2807E+01  0.3527E+00
    -17.084  0.4450E+01  0.6725E+00
    -17.011  0.5487E+01  0.1067E+01
    -16.939  0.5263E+01  0.1445E+01
    -16.866  0.3928E+01  0.1727E+01
    -16.794  0.2282E+01  0.1891E+01
    -16.721  0.1032E+01  0.1965E+01
    -16.649  0.3634E+00  0.1991E+01
    -16.577  0.9971E-01  0.1998E+01
    -16.504  0.2131E-01  0.2000E+01
    -16.432  0.3550E-02  0.2000E+01
    -16.359  0.4609E-03  0.2000E+01
    -16.287  0.4663E-04  0.2000E+01
    -16.214  0.3678E-05  0.2000E+01
    -16.142  0.2261E-06  0.2000E+01
    -16.069  0.1084E-07  0.2000E+01
    -15.997  0.4049E-09  0.2000E+01
    -15.924  0.1179E-10  0.2000E+01
    -15.852  0.2677E-12  0.2000E+01
    -15.779  0.4971E-14  0.2000E+01
    -15.707  0.0000E+00  0.2000E+01
    -15.634  0.0000E+00  0.2000E+01
    -15.562  0.0000E+00  0.2000E+01
    -15.490  0.0000E+00  0.2000E+01
    -15.417  0.0000E+00  0.2000E+01
    -15.345  0.0000E+00  0.2000E+01
    -15.272  0.0000E+00  0.2000E+01
    -15.200  0.0000E+00  0.2000E+01
    -15.127  0.0000E+00  0.2000E+01
    -15.055  0.0000E+00  0.2000E+01
    -14.982  0.0000E+00  0.2000E+01
    -14.910  0.0000E+00  0.2000E+01
    -14.837  0.0000E+00  0.2000E+01
    -14.765  0.0000E+00  0.2000E+01
    -14.692  0.0000E+00  0.2000E+01
    -14.620  0.0000E+00  0.2000E+01
    -14.547  0.0000E+00  0.2000E+01
    -14.475  0.0000E+00  0.2000E+01
    -14.402  0.0000E+00  0.2000E+01
    -14.330  0.0000E+00  0.2000E+01
    -14.258  0.0000E+00  0.2000E+01
    -14.185  0.0000E+00  0.2000E+01
    -14.113  0.0000E+00  0.2000E+01
    -14.040  0.0000E+00  0.2000E+01
    -13.968  0.0000E+00  0.2000E+01
    -13.895  0.0000E+00  0.2000E+01
    -13.823  0.0000E+00  0.2000E+01
    -13.750  0.0000E+00  0.2000E+01
    -13.678  0.0000E+00  0.2000E+01
    -13.605  0.0000E+00  0.2000E+01
    -13.533  0.0000E+00  0.2000E+01
    -13.460  0.0000E+00  0.2000E+01
    -13.388  0.0000E+00  0.2000E+01
    -13.315  0.0000E+00  0.2000E+01
    -13.243  0.0000E+00  0.2000E+01
    -13.171  0.0000E+00  0.2000E+01
    -13.098  0.0000E+00  0.2000E+01
    -13.026  0.0000E+00  0.2000E+01
    -12.953  0.0000E+00  0.2000E+01
    -12.881  0.0000E+00  0.2000E+01
    -12.808  0.0000E+00  0.2000E+01
    -12.736  0.0000E+00  0.2000E+01
    -12.663  0.0000E+00  0.2000E+01
    -12.591  0.0000E+00  0.2000E+01
    -12.518  0.0000E+00  0.2000E+01
    -12.446  0.0000E+00  0.2000E+01
    -12.373  0.0000E+00  0.2000E+01
    -12.301  0.0000E+00  0.2000E+01
    -12.228  0.0000E+00  0.2000E+01
    -12.156  0.0000E+00  0.2000E+01
    -12.084  0.0000E+00  0.2000E+01
    -12.011  0.0000E+00  0.2000E+01
    -11.939  0.0000E+00  0.2000E+01
    -11.866  0.0000E+00  0.2000E+01
    -11.794  0.0000E+00  0.2000E+01
    -11.721  0.0000E+00  0.2000E+01
    -11.649  0.0000E+00  0.2000E+01
    -11.576  0.0000E+00  0.2000E+01
    -11.504  0.0000E+00  0.2000E+01
    -11.431  0.0000E+00  0.2000E+01
    -11.359  0.0000E+00  0.2000E+01
    -11.286  0.0000E+00  0.2000E+01
    -11.214  0.0000E+00  0.2000E+01
    -11.141  0.0000E+00  0.2000E+01
    -11.069  0.0000E+00  0.2000E+01
    -10.996  0.0000E+00  0.2000E+01
    -10.924  0.0000E+00  0.2000E+01
    -10.852  0.0000E+00  0.2000E+01
    -10.779  0.0000E+00  0.2000E+01
    -10.707  0.0000E+00  0.2000E+01
    -10.634  0.3722E-14  0.2000E+01
    -10.562  0.2185E-12  0.2000E+01
    -10.489  0.9890E-11  0.2000E+01
    -10.417  0.3493E-09  0.2000E+01
    -10.344  0.9617E-08  0.2000E+01
    -10.272  0.2064E-06  0.2000E+01
    -10.199  0.3457E-05  0.2000E+01
    -10.127  0.4518E-04  0.2000E+01
    -10.054  0.4614E-03  0.2000E+01
     -9.982  0.3686E-02  0.2000E+01
     -9.909  0.2308E-01  0.2002E+01
     -9.837  0.1135E+00  0.2010E+01
     -9.765  0.4405E+00  0.2042E+01
     -9.692  0.1355E+01  0.2139E+01
     -9.620  0.3322E+01  0.2378E+01
     -9.547  0.6547E+01  0.2848E+01
     -9.475  0.1047E+02  0.3600E+01
     -9.402  0.1369E+02  0.4584E+01
     -9.330  0.1474E+02  0.5643E+01
     -9.257  0.1311E+02  0.6585E+01
     -9.185  0.9602E+01  0.7275E+01
     -9.112  0.5756E+01  0.7688E+01
     -9.040  0.2800E+01  0.7889E+01
     -8.967  0.1095E+01  0.7968E+01
     -8.895  0.3415E+00  0.7993E+01
     -8.822  0.8441E-01  0.7999E+01
     -8.750  0.1645E-01  0.8000E+01
     -8.678  0.2519E-02  0.8000E+01
     -8.605  0.3022E-03  0.8000E+01
     -8.533  0.2835E-04  0.8000E+01
     -8.460  0.2078E-05  0.8000E+01
     -8.388  0.1189E-06  0.8000E+01
     -8.315  0.5302E-08  0.8000E+01
     -8.243  0.1843E-09  0.8000E+01
     -8.170  0.4995E-11  0.8000E+01
     -8.098  0.1049E-12  0.8000E+01
     -8.025  0.1556E-14  0.8000E+01
     -7.953  0.0000E+00  0.8000E+01
     -7.880  0.0000E+00  0.8000E+01
     -7.808  0.0000E+00  0.8000E+01
     -7.735  0.0000E+00  0.8000E+01
     -7.663  0.0000E+00  0.8000E+01
     -7.590  0.0000E+00  0.8000E+01
     -7.518  0.0000E+00  0.8000E+01
     -7.446  0.0000E+00  0.8000E+01
     -7.373  0.0000E+00  0.8000E+01
     -7.301  0.0000E+00  0.8000E+01
     -7.228  0.0000E+00  0.8000E+01
     -7.156  0.0000E+00  0.8000E+01
     -7.083  0.0000E+00  0.8000E+01
     -7.011  0.0000E+00  0.8000E+01
     -6.938  0.0000E+00  0.8000E+01
     -6.866  0.0000E+00  0.8000E+01
     -6.793  0.0000E+00  0.8000E+01
     -6.721  0.0000E+00  0.8000E+01
     -6.648  0.0000E+00  0.8000E+01
     -6.576  0.0000E+00  0.8000E+01
     -6.503  0.0000E+00  0.8000E+01
     -6.431  0.0000E+00  0.8000E+01
     -6.359  0.0000E+00  0.8000E+01
     -6.286  0.0000E+00  0.8000E+01
     -6.214  0.0000E+00  0.8000E+01
     -6.141  0.0000E+00  0.8000E+01
     -6.069  0.0000E+00  0.8000E+01
     -5.996  0.0000E+00  0.8000E+01
     -5.924  0.0000E+00  0.8000E+01
     -5.851  0.0000E+00  0.8000E+01
     -5.779  0.0000E+00  0.8000E+01
     -5.706  0.0000E+00  0.8000E+01
     -5.634  0.0000E+00  0.8000E+01
     -5.561  0.0000E+00  0.8000E+01
     -5.489  0.0000E+00  0.8000E+01
     -5.416  0.0000E+00  0.8000E+01
     -5.344  0.0000E+00  0.8000E+01
     -5.272  0.0000E+00  0.8000E+01
     -5.199  0.0000E+00  0.8000E+01
     -5.127  0.0000E+00  0.8000E+01
     -5.054  0.0000E+00  0.8000E+01
     -4.982  0.0000E+00  0.8000E+01
     -4.909  0.0000E+00  0.8000E+01
     -4.837  0.0000E+00  0.8000E+01
     -4.764  0.0000E+00  0.8000E+01
     -4.692  0.0000E+00  0.8000E+01
     -4.619  0.0000E+00  0.8000E+01
     -4.547  0.0000E+00  0.8000E+01
     -4.474  0.0000E+00  0.8000E+01
     -4.402  0.0000E+00  0.8000E+01
     -4.329  0.0000E+00  0.8000E+01
     -4.257  0.0000E+00  0.8000E+01
     -4.184  0.0000E+00  0.8000E+01
     -4.112  0.0000E+00  0.8000E+01
     -4.040  0.0000E+00  0.8000E+01
     -3.967  0.0000E+00  0.8000E+01
     -3.895  0.0000E+00  0.8000E+01
     -3.822  0.0000E+00  0.8000E+01
     -3.750  0.0000E+00  0.8000E+01
     -3.677  0.0000E+00  0.8000E+01
     -3.605  0.0000E+00  0.8000E+01
     -3.532  0.0000E+00  0.8000E+01
     -3.460  0.0000E+00  0.8000E+01
     -3.387  0.0000E+00  0.8000E+01
     -3.315  0.0000E+00  0.8000E+01
     -3.242  0.0000E+00  0.8000E+01
     -3.170  0.0000E+00  0.8000E+01
     -3.097  0.0000E+00  0.8000E+01
     -3.025  0.0000E+00  0.8000E+01
     -2.953  0.0000E+00  0.8000E+01
     -2.880  0.0000E+00  0.8000E+01
     -2.808  0.0000E+00  0.8000E+01
     -2.735  0.0000E+00  0.8000E+01
     -2.663  0.0000E+00  0.8000E+01
     -2.590  0.0000E+00  0.8000E+01
     -2.518  0.0000E+00  0.8000E+01
     -2.445  0.0000E+00  0.8000E+01
     -2.373  0.0000E+00  0.8000E+01
     -2.300  0.0000E+00  0.8000E+01
     -2.228  0.0000E+00  0.8000E+01
     -2.155  0.0000E+00  0.8000E+01
     -2.083  0.0000E+00  0.8000E+01
     -2.010  0.0000E+00  0.8000E+01
     -1.938  0.0000E+00  0.8000E+01
     -1.866  0.0000E+00  0.8000E+01
     -1.793  0.0000E+00  0.8000E+01
     -1.721  0.0000E+00  0.8000E+01
     -1.648  0.0000E+00  0.8000E+01
     -1.576  0.3889E-15  0.8000E+01
     -1.503  0.2646E-13  0.8000E+01
     -1.431  0.1307E-11  0.8000E+01
     -1.358  0.5023E-10  0.8000E+01
     -1.286  0.1506E-08  0.8000E+01
     -1.213  0.3528E-07  0.8000E+01
     -1.141  0.6458E-06  0.8000E+01
     -1.068  0.9243E-05  0.8000E+01
     -0.996  0.1035E-03  0.8000E+01
     -0.923  0.9082E-03  0.8000E+01
     -0.851  0.6246E-02  0.8001E+01
     -0.778  0.3370E-01  0.8003E+01
     -0.706  0.1428E+00  0.8013E+01
     -0.634  0.4752E+00  0.8047E+01
     -0.561  0.1244E+01  0.8136E+01
     -0.489  0.2560E+01  0.8320E+01
     -0.416  0.4145E+01  0.8618E+01
     -0.344  0.5281E+01  0.8997E+01
     -0.271  0.5291E+01  0.9377E+01
     -0.199  0.4167E+01  0.9677E+01
     -0.126  0.2578E+01  0.9863E+01
     -0.054  0.1252E+01  0.9953E+01
      0.019  0.4830E+00  0.9987E+01
      0.091  0.1803E+00  0.1000E+02
      0.164  0.2030E+00  0.1002E+02
      0.236  0.6053E+00  0.1006E+02
      0.309  0.1699E+01  0.1018E+02
      0.381  0.3903E+01  0.1046E+02
      0.453  0.7330E+01  0.1099E+02
      0.526  0.1132E+02  0.1180E+02
      0.598  0.1438E+02  0.1283E+02
      0.671  0.1498E+02  0.1391E+02
      0.743  0.1269E+02  0.1482E+02
      0.816  0.8669E+01  0.1545E+02
      0.888  0.4731E+01  0.1579E+02
      0.961  0.2048E+01  0.1593E+02
      1.033  0.6991E+00  0.1598E+02
      1.106  0.1875E+00  0.1600E+02
      1.178  0.3938E-01  0.1600E+02
      1.251  0.6463E-02  0.1600E+02
      1.323  0.8277E-03  0.1600E+02
      1.396  0.8260E-04  0.1600E+02
      1.468  0.6419E-05  0.1600E+02
      1.540  0.3882E-06  0.1600E+02
      1.613  0.1825E-07  0.1600E+02
      1.685  0.6670E-09  0.1600E+02
      1.758  0.1894E-10  0.1600E+02
      1.830  0.4184E-12  0.1600E+02
      1.903  0.6321E-14  0.1600E+02
      1.975  0.0000E+00  0.1600E+02
      2.048  0.0000E+00  0.1600E+02
      2.120  0.0000E+00  0.1600E+02
      2.193  0.0000E+00  0.1600E+02
      2.265  0.0000E+00  0.1600E+02
      2.338  0.0000E+00  0.1600E+02
      2.410  0.0000E+00  0.1600E+02
      2.483  0.0000E+00  0.1600E+02
      2.555  0.0000E+00  0.1600E+02
      2.628  0.0000E+00  0.1600E+02
      2.700  0.0000E+00  0.1600E+02
      2.70422554    -19.05731365  301     -8.39401777      1.00000000
    -19.057  0.0000E+00  0.0000E+00
    -18.985  0.0000E+00  0.0000E+00
    -18.912  0.0000E+00  0.0000E+00
    -18.840  0.0000E+00  0.0000E+00
    -18.767  0.0000E+00  0.0000E+00
    -18.695  0.0000E+00  0.0000E+00
    -18.622  0.0000E+00  0.0000E+00
    -18.550  0.0000E+00  0.0000E+00
    -18.477  0.0000E+00  0.0000E+00
    -18.404  0.0000E+00  0.0000E+00
    -18.332  0.0000E+00  0.0000E+00
    -18.259  0.0000E+00  0.0000E+00
    -18.187  0.1837E-14  0.1332E-15
    -18.114  0.1052E-12  0.7766E-14
    -18.042  0.4541E-11  0.3372E-12
    -17.969  0.1512E-09  0.1131E-10
    -17.897  0.3884E-08  0.2930E-09
    -17.824  0.7697E-07  0.5876E-08
    -17.752  0.1177E-05  0.9126E-07
    -17.679  0.1390E-04  0.1099E-05
    -17.607  0.1266E-03  0.1029E-04
    -17.534  0.8914E-03  0.7494E-04
    -17.461  0.4846E-02  0.4265E-03
    -17.389  0.2035E-01  0.1903E-02
    -17.316  0.6606E-01  0.6694E-02
    -17.244  0.1657E+00  0.1871E-01
    -17.171  0.3212E+00  0.4201E-01
    -17.099  0.4814E+00  0.7693E-01
    -17.026  0.5577E+00  0.1174E+00
    -16.954  0.4995E+00  0.1536E+00
    -16.881  0.3458E+00  0.1787E+00
    -16.809  0.1851E+00  0.1921E+00
    -16.736  0.7658E-01  0.1977E+00
    -16.664  0.2449E-01  0.1995E+00
    -16.591  0.6050E-02  0.1999E+00
    -16.518  0.1155E-02  0.2000E+00
    -16.446  0.1703E-03  0.2000E+00
    -16.373  0.1939E-04  0.2000E+00
    -16.301  0.1705E-05  0.2000E+00
    -16.228  0.1157E-06  0.2000E+00
    -16.156  0.6059E-08  0.2000E+00
    -16.083  0.2448E-09  0.2000E+00
    -16.011  0.7632E-11  0.2000E+00
    -15.938  0.1831E-12  0.2000E+00
    -15.866  0.3673E-14  0.2000E+00
    -15.793  0.0000E+00  0.2000E+00
    -15.721  0.0000E+00  0.2000E+00
    -15.648  0.0000E+00  0.2000E+00
    -15.575  0.0000E+00  0.2000E+00
    -15.503  0.0000E+00  0.2000E+00
    -15.430  0.0000E+00  0.2000E+00
    -15.358  0.0000E+00  0.2000E+00
    -15.285  0.0000E+00  0.2000E+00
    -15.213  0.0000E+00  0.2000E+00
    -15.140  0.0000E+00  0.2000E+00
    -15.068  0.0000E+00  0.2000E+00
    -14.995  0.0000E+00  0.2000E+00
    -14.923  0.0000E+00  0.2000E+00
    -14.850  0.0000E+00  0.2000E+00
    -14.778  0.0000E+00  0.2000E+00
    -14.705  0.0000E+00  0.2000E+00
    -14.632  0.0000E+00  0.2000E+00
    -14.560  0.0000E+00  0.2000E+00
    -14.487  0.0000E+00  0.2000E+00
    -14.415  0.0000E+00  0.2000E+00
    -14.342  0.0000E+00  0.2000E+00
    -14.270  0.0000E+00  0.2000E+00
    -14.197  0.0000E+00  0.2000E+00
    -14.125  0.0000E+00  0.2000E+00
    -14.052  0.0000E+00  0.2000E+00
    -13.980  0.0000E+00  0.2000E+00
    -13.907  0.0000E+00  0.2000E+00
    -13.835  0.0000E+00  0.2000E+00
    -13.762  0.0000E+00  0.2000E+00
    -13.689  0.0000E+00  0.2000E+00
    -13.617  0.0000E+00  0.2000E+00
    -13.544  0.0000E+00  0.2000E+00
    -13.472  0.0000E+00  0.2000E+00
    -13.399  0.0000E+00  0.2000E+00
    -13.327  0.0000E+00  0.2000E+00
    -13.254  0.0000E+00  0.2000E+00
    -13.182  0.0000E+00  0.2000E+00
    -13.109  0.0000E+00  0.2000E+00
    -13.037  0.0000E+00  0.2000E+00
    -12.964  0.0000E+00  0.2000E+00
    -12.892  0.0000E+00  0.2000E+00
    -12.819  0.0000E+00  0.2000E+00
    -12.746  0.0000E+00  0.2000E+00
    -12.674  0.0000E+00  0.2000E+00
    -12.601  0.0000E+00  0.2000E+00
    -12.529  0.0000E+00  0.2000E+00
    -12.456  0.0000E+00  0.2000E+00
    -12.384  0.0000E+00  0.2000E+00
    -12.311  0.0000E+00  0.2000E+00
    -12.239  0.0000E+00  0.2000E+00
    -12.166  0.0000E+00  0.2000E+00
    -12.094  0.0000E+00  0.2000E+00
    -12.021  0.0000E+00  0.2000E+00
    -11.949  0.0000E+00  0.2000E+00
    -11.876  0.0000E+00  0.2000E+00
    -11.803  0.0000E+00  0.2000E+00
    -11.731  0.0000E+00  0.2000E+00
    -11.658  0.0000E+00  0.2000E+00
    -11.586  0.0000E+00  0.2000E+00
    -11.513  0.0000E+00  0.2000E+00
    -11.441  0.0000E+00  0.2000E+00
    -11.368  0.0000E+00  0.2000E+00
    -11.296  0.0000E+00  0.2000E+00
    -11.223  0.0000E+00  0.2000E+00
    -11.151  0.0000E+00  0.2000E+00
    -11.078  0.0000E+00  0.2000E+00
    -11.006  0.0000E+00  0.2000E+00
    -10.933  0.0000E+00  0.2000E+00
    -10.860  0.0000E+00  0.2000E+00
    -10.788  0.0000E+00  0.2000E+00
    -10.715  0.0000E+00  0.2000E+00
    -10.643  0.1531E-15  0.2000E+00
    -10.570  0.7193E-14  0.2000E+00
    -10.498  0.3749E-12  0.2000E+00
    -10.425  0.1488E-10  0.2000E+00
    -10.353  0.4559E-09  0.2000E+00
    -10.280  0.1079E-07  0.2000E+00
    -10.208  0.1972E-06  0.2000E+00
    -10.135  0.2788E-05  0.2000E+00
    -10.063  0.3055E-04  0.2000E+00
     -9.990  0.2597E-03  0.2000E+00
     -9.917  0.1719E-02  0.2001E+00
     -9.845  0.8884E-02  0.2008E+00
     -9.772  0.3606E-01  0.2034E+00
     -9.700  0.1157E+00  0.2118E+00
     -9.627  0.2961E+00  0.2333E+00
     -9.555  0.6091E+00  0.2775E+00
     -9.482  0.1015E+01  0.3511E+00
     -9.410  0.1377E+01  0.4510E+00
     -9.337  0.1521E+01  0.5613E+00
     -9.265  0.1362E+01  0.6601E+00
     -9.192  0.9814E+00  0.7312E+00
     -9.120  0.5648E+00  0.7722E+00
     -9.047  0.2576E+00  0.7909E+00
     -8.974  0.9254E-01  0.7976E+00
     -8.902  0.2606E-01  0.7995E+00
     -8.829  0.5732E-02  0.7999E+00
     -8.757  0.9822E-03  0.8000E+00
     -8.684  0.1309E-03  0.8000E+00
     -8.612  0.1354E-04  0.8000E+00
     -8.539  0.1087E-05  0.8000E+00
     -8.467  0.6759E-07  0.8000E+00
     -8.394  0.3254E-08  0.8000E+00
     -8.322  0.1212E-09  0.8000E+00
     -8.249  0.3492E-11  0.8000E+00
     -8.177  0.7767E-13  0.8000E+00
     -8.104  0.1224E-14  0.8000E+00
     -8.031  0.0000E+00  0.8000E+00
     -7.959  0.0000E+00  0.8000E+00
     -7.886  0.0000E+00  0.8000E+00
     -7.814  0.0000E+00  0.8000E+00
     -7.741  0.0000E+00  0.8000E+00
     -7.669  0.0000E+00  0.8000E+00
     -7.596  0.0000E+00  0.8000E+00
     -7.524  0.0000E+00  0.8000E+00
     -7.451  0.0000E+00  0.8000E+00
     -7.379  0.0000E+00  0.8000E+00
     -7.306  0.0000E+00  0.8000E+00
     -7.234  0.0000E+00  0.8000E+00
     -7.161  0.0000E+00  0.8000E+00
     -7.088  0.0000E+00  0.8000E+00
     -7.016  0.0000E+00  0.8000E+00
     -6.943  0.0000E+00  0.8000E+00
     -6.871  0.0000E+00  0.8000E+00
     -6.798  0.0000E+00  0.8000E+00
     -6.726  0.0000E+00  0.8000E+00
     -6.653  0.0000E+00  0.8000E+00
     -6.581  0.0000E+00  0.8000E+00
     -6.508  0.0000E+00  0.8000E+00
     -6.436  0.0000E+00  0.8000E+00
     -6.363  0.0000E+00  0.8000E+00
     -6.291  0.0000E+00  0.8000E+00
     -6.218  0.0000E+00  0.8000E+00
     -6.145  0.0000E+00  0.8000E+00
     -6.073  0.0000E+00  0.8000E+00
     -6.000  0.0000E+00  0.8000E+00
     -5.928  0.0000E+00  0.8000E+00
     -5.855  0.0000E+00  0.8000E+00
     -5.783  0.0000E+00  0.8000E+00
     -5.710  0.0000E+00  0.8000E+00
     -5.638  0.0000E+00  0.8000E+00
     -5.565  0.0000E+00  0.8000E+00
     -5.493  0.0000E+00  0.8000E+00
     -5.420  0.0000E+00  0.8000E+00
     -5.348  0.0000E+00  0.8000E+00
     -5.275  0.0000E+00  0.8000E+00
     -5.202  0.0000E+00  0.8000E+00
     -5.130  0.0000E+00  0.8000E+00
     -5.057  0.0000E+00  0.8000E+00
     -4.985  0.0000E+00  0.8000E+00
     -4.912  0.0000E+00  0.8000E+00
     -4.840  0.0000E+00  0.8000E+00
     -4.767  0.0000E+00  0.8000E+00
     -4.695  0.0000E+00  0.8000E+00
     -4.622  0.0000E+00  0.8000E+00
     -4.550  0.0000E+00  0.8000E+00
     -4.477  0.0000E+00  0.8000E+00
     -4.405  0.0000E+00  0.8000E+00
     -4.332  0.0000E+00  0.8000E+00
     -4.259  0.0000E+00  0.8000E+00
     -4.187  0.0000E+00  0.8000E+00
     -4.114  0.0000E+00  0.8000E+00
     -4.042  0.0000E+00  0.8000E+00
     -3.969  0.0000E+00  0.8000E+00
     -3.897  0.0000E+00  0.8000E+00
     -3.824  0.0000E+00  0.8000E+00
     -3.752  0.0000E+00  0.8000E+00
     -3.679  0.0000E+00  0.8000E+00
     -3.607  0.0000E+00  0.8000E+00
     -3.534  0.0000E+00  0.8000E+00
     -3.462  0.0000E+00  0.8000E+00
     -3.389  0.0000E+00  0.8000E+00
     -3.316  0.0000E+00  0.8000E+00
     -3.244  0.0000E+00  0.8000E+00
     -3.171  0.0000E+00  0.8000E+00
     -3.099  0.0000E+00  0.8000E+00
     -3.026  0.0000E+00  0.8000E+00
     -2.954  0.0000E+00  0.8000E+00
     -2.881  0.0000E+00  0.8000E+00
     -2.809  0.0000E+00  0.8000E+00
     -2.736  0.0000E+00  0.8000E+00
     -2.664  0.0000E+00  0.8000E+00
     -2.591  0.0000E+00  0.8000E+00
     -2.519  0.0000E+00  0.8000E+00
     -2.446  0.0000E+00  0.8000E+00
     -2.373  0.0000E+00  0.8000E+00
     -2.301  0.0000E+00  0.8000E+00
     -2.228  0.0000E+00  0.8000E+00
     -2.156  0.0000E+00  0.8000E+00
     -2.083  0.0000E+00  0.8000E+00
     -2.011  0.0000E+00  0.8000E+00
     -1.938  0.0000E+00  0.8000E+00
     -1.866  0.0000E+00  0.8000E+00
     -1.793  0.0000E+00  0.8000E+00
     -1.721  0.0000E+00  0.8000E+00
     -1.648  0.0000E+00  0.8000E+00
     -1.576  0.0000E+00  0.8000E+00
     -1.503  0.0000E+00  0.8000E+00
     -1.430  0.9948E-15  0.8000E+00
     -1.358  0.5896E-13  0.8000E+00
     -1.285  0.2643E-11  0.8000E+00
     -1.213  0.9133E-10  0.8000E+00
     -1.140  0.2435E-08  0.8000E+00
     -1.068  0.5011E-07  0.8000E+00
     -0.995  0.7957E-06  0.8000E+00
     -0.923  0.9755E-05  0.8000E+00
     -0.850  0.9235E-04  0.8000E+00
     -0.778  0.6753E-03  0.8001E+00
     -0.705  0.3814E-02  0.8003E+00
     -0.633  0.1665E-01  0.8015E+00
     -0.560  0.5616E-01  0.8056E+00
     -0.487  0.1464E+00  0.8162E+00
     -0.415  0.2952E+00  0.8376E+00
     -0.342  0.4600E+00  0.8710E+00
     -0.270  0.5543E+00  0.9112E+00
     -0.197  0.5164E+00  0.9487E+00
     -0.125  0.3720E+00  0.9757E+00
     -0.052  0.2072E+00  0.9907E+00
      0.020  0.8962E-01  0.9972E+00
      0.093  0.3224E-01  0.9995E+00
      0.165  0.1990E-01  0.1001E+01
      0.238  0.4783E-01  0.1004E+01
      0.310  0.1389E+00  0.1015E+01
      0.383  0.3329E+00  0.1039E+01
      0.456  0.6487E+00  0.1086E+01
      0.528  0.1038E+01  0.1161E+01
      0.601  0.1370E+01  0.1260E+01
      0.673  0.1491E+01  0.1368E+01
      0.746  0.1326E+01  0.1465E+01
      0.818  0.9523E+00  0.1534E+01
      0.891  0.5463E+00  0.1573E+01
      0.963  0.2478E+00  0.1591E+01
      1.036  0.8832E-01  0.1598E+01
      1.108  0.2461E-01  0.1600E+01
      1.181  0.5344E-02  0.1600E+01
      1.253  0.9026E-03  0.1600E+01
      1.326  0.1184E-03  0.1600E+01
      1.399  0.1205E-04  0.1600E+01
      1.471  0.9514E-06  0.1600E+01
      1.544  0.5820E-07  0.1600E+01
      1.616  0.2758E-08  0.1600E+01
      1.689  0.1012E-09  0.1600E+01
      1.761  0.2874E-11  0.1600E+01
      1.834  0.6306E-13  0.1600E+01
      1.906  0.1071E-14  0.1600E+01
      1.979  0.0000E+00  0.1600E+01
      2.051  0.0000E+00  0.1600E+01
      2.124  0.0000E+00  0.1600E+01
      2.196  0.0000E+00  0.1600E+01
      2.269  0.0000E+00  0.1600E+01
      2.342  0.0000E+00  0.1600E+01
      2.414  0.0000E+00  0.1600E+01
      2.487  0.0000E+00  0.1600E+01
      2.559  0.0000E+00  0.1600E+01
      2.632  0.0000E+00  0.1600E+01
      2.704  0.0000E+00  0.1600E+01
