    5    5   10    1
  0.2126993E+03  0.1005164E-08  0.1030065E-08  0.1027842E-08  0.5000000E-15
  1.000000000000000E-004
  CAR 
 unknown system                          
      8      4      8
 
  0.2500000E+00  0.2500000E+00  0.2500000E+00  0.2500000E+00
    1      -17.057305   1.000000
    2       -9.464670   1.000000
    3       -9.357518   1.000000
    4       -9.313294   1.000000
    5       -0.286481   0.000000
    6        0.525342   0.000000
    7        0.652655   0.000000
    8        0.676884   0.000000
 
 -0.2500000E+00  0.2500000E+00  0.2500000E+00  0.2500000E+00
    1      -17.057296   1.000000
    2       -9.464608   1.000000
    3       -9.357520   1.000000
    4       -9.313188   1.000000
    5       -0.295954   0.000000
    6        0.543328   0.000000
    7        0.667575   0.000000
    8        0.704226   0.000000
 
  0.2500000E+00 -0.2500000E+00  0.2500000E+00  0.2500000E+00
    1      -17.057283   1.000000
    2       -9.464629   1.000000
    3       -9.357464   1.000000
    4       -9.313261   1.000000
    5       -0.289328   0.000000
    6        0.522149   0.000000
    7        0.657852   0.000000
    8        0.693319   0.000000
 
 -0.2500000E+00 -0.2500000E+00  0.2500000E+00  0.2500000E+00
    1      -17.057314   1.000000
    2       -9.464648   1.000000
    3       -9.357570   1.000000
    4       -9.313276   1.000000
    5       -0.287491   0.000000
    6        0.523094   0.000000
    7        0.658661   0.000000
    8        0.679739   0.000000
