    5    5   10    1
  0.2070863E+03  0.9992056E-09  0.1020370E-08  0.1015944E-08  0.5000000E-15
  1.000000000000000E-004
  CAR 
 unknown system                          
      8      4      8
 
  0.2500000E+00  0.2500000E+00  0.2500000E+00  0.2500000E+00
    1      -16.990338   1.000000
    2       -9.387120   1.000000
    3       -9.349170   1.000000
    4       -9.292726   1.000000
    5       -0.303023   0.000000
    6        0.539672   0.000000
    7        0.664314   0.000000
    8        0.675341   0.000000
 
 -0.2500000E+00  0.2500000E+00  0.2500000E+00  0.2500000E+00
    1      -16.990349   1.000000
    2       -9.387161   1.000000
    3       -9.349142   1.000000
    4       -9.292744   1.000000
    5       -0.304350   0.000000
    6        0.542622   0.000000
    7        0.658822   0.000000
    8        0.682292   0.000000
 
  0.2500000E+00 -0.2500000E+00  0.2500000E+00  0.2500000E+00
    1      -16.990313   1.000000
    2       -9.387123   1.000000
    3       -9.349181   1.000000
    4       -9.292731   1.000000
    5       -0.306270   0.000000
    6        0.547109   0.000000
    7        0.663185   0.000000
    8        0.686806   0.000000
 
 -0.2500000E+00 -0.2500000E+00  0.2500000E+00  0.2500000E+00
    1      -16.990359   1.000000
    2       -9.387137   1.000000
    3       -9.349315   1.000000
    4       -9.292895   1.000000
    5       -0.298552   0.000000
    6        0.527855   0.000000
    7        0.656323   0.000000
    8        0.665205   0.000000
