 running on   16 total cores
 distrk:  each k-point on   16 cores,    1 groups
 distr:  one band on    4 cores,    4 groups
 using from now: INCAR     
 vasp.5.4.4.18Apr17-6-g9f103f2a35 (build Nov 25 2021 15:25:00) complex          
  
 POSCAR found type information on POSCAR  H  C 
 POSCAR found :  2 types and       5 ions
 scaLAPACK will be used
 LDA part: xc-table for Pade appr. of Perdew
 POSCAR found type information on POSCAR  H  C 
 POSCAR found :  2 types and       5 ions
 generate k-points for:    2    2    2
 POSCAR, INCAR and KPOINTS ok, starting setup
 FFT: planning ...
 WAVECAR not read
 prediction of wavefunctions initialized - no I/O
 entering main loop
       N       E                     dE             d eps       ncg     rms          rms(c)
DAV:   1     0.111143940589E+02    0.11114E+02   -0.19515E+03    96   0.403E+02
DAV:   2    -0.231931023736E+02   -0.34307E+02   -0.34307E+02    64   0.111E+02
DAV:   3    -0.271708963589E+02   -0.39778E+01   -0.39778E+01    64   0.430E+01
DAV:   4    -0.273396672643E+02   -0.16877E+00   -0.16877E+00   128   0.953E+00
DAV:   5    -0.273397279363E+02   -0.60672E-04   -0.60672E-04    88   0.197E-01    0.846E+00
RMM:   6    -0.246127701594E+02    0.27270E+01   -0.50022E+00    64   0.136E+01    0.418E+00
RMM:   7    -0.241505968828E+02    0.46217E+00   -0.10734E+00    64   0.596E+00    0.224E+00
RMM:   8    -0.240068362035E+02    0.14376E+00   -0.16252E-01    64   0.286E+00    0.229E-01
RMM:   9    -0.240012899033E+02    0.55463E-02   -0.10745E-02    64   0.685E-01    0.192E-01
RMM:  10    -0.239948902678E+02    0.63996E-02   -0.24614E-02    64   0.850E-01    0.271E-01
RMM:  11    -0.239958070294E+02   -0.91676E-03   -0.92481E-03    64   0.591E-01    0.974E-02
RMM:  12    -0.240050145376E+02   -0.92075E-02   -0.28820E-03    64   0.328E-01    0.118E-01
RMM:  13    -0.240056023192E+02   -0.58778E-03   -0.10556E-03    64   0.178E-01    0.424E-02
RMM:  14    -0.240084763937E+02   -0.28741E-02   -0.12557E-03    64   0.216E-01    0.307E-02
RMM:  15    -0.240086874149E+02   -0.21102E-03   -0.38868E-05    64   0.391E-02    0.217E-02
RMM:  16    -0.240089052132E+02   -0.21780E-03   -0.18684E-04    64   0.787E-02    0.111E-02
RMM:  17    -0.240089313192E+02   -0.26106E-04   -0.21699E-05    64   0.274E-02    0.149E-03
RMM:  18    -0.240089459367E+02   -0.14618E-04   -0.13803E-06    48   0.943E-03    0.974E-04
RMM:  19    -0.240089484980E+02   -0.25612E-05   -0.29949E-07    48   0.396E-03    0.313E-04
RMM:  20    -0.240089498106E+02   -0.13126E-05   -0.33379E-08    38   0.166E-03    0.193E-04
RMM:  21    -0.240089501699E+02   -0.35932E-06   -0.54503E-09    33   0.130E-03
    1 T=     1. E= -.24008614E+02 F= -.24008950E+02 E0= -.24008950E+02  EK= 0.33591E-03 SP= 0.00E+00 SK= 0.00E+00
 bond charge predicted
       N       E                     dE             d eps       ncg     rms          rms(c)
DAV:   1    -0.240115535885E+02   -0.26038E-02   -0.29846E-03    80   0.495E-01    0.287E-02
RMM:   2    -0.240115303561E+02    0.23232E-04   -0.72027E-05    64   0.628E-02    0.128E-02
RMM:   3    -0.240115299482E+02    0.40791E-06   -0.39113E-05    64   0.380E-02    0.547E-03
RMM:   4    -0.240115296874E+02    0.26079E-06   -0.10691E-06    48   0.856E-03
    2 T=     6. E= -.24008661E+02 F= -.24011530E+02 E0= -.24011530E+02  EK= 0.28684E-02 SP= 0.00E+00 SK= 0.00E+00
 bond charge predicted
 prediction of wavefunctions
       N       E                     dE             d eps       ncg     rms          rms(c)
DAV:   1    -0.240159776475E+02   -0.44477E-02   -0.23201E-03    96   0.458E-01    0.737E-03
RMM:   2    -0.240159793024E+02   -0.16548E-05   -0.35562E-05    64   0.552E-02    0.337E-03
RMM:   3    -0.240159799236E+02   -0.62119E-06   -0.41770E-06    64   0.159E-02    0.105E-03
RMM:   4    -0.240159802857E+02   -0.36216E-06   -0.16686E-07    48   0.430E-03
    3 T=    14. E= -.24008742E+02 F= -.24015980E+02 E0= -.24015980E+02  EK= 0.72383E-02 SP= 0.00E+00 SK= 0.00E+00
 bond charge predicted
 prediction of wavefunctions
       N       E                     dE             d eps       ncg     rms          rms(c)
DAV:   1    -0.240210836939E+02   -0.51038E-02   -0.55601E-04    80   0.158E-01    0.160E-02
RMM:   2    -0.240210768875E+02    0.68064E-05   -0.33183E-05    64   0.459E-02    0.639E-03
RMM:   3    -0.240210780061E+02   -0.11186E-05   -0.16465E-05    64   0.249E-02    0.187E-03
RMM:   4    -0.240210785683E+02   -0.56220E-06   -0.52629E-07    48   0.596E-03
    4 T=    24. E= -.24008832E+02 F= -.24021079E+02 E0= -.24021079E+02  EK= 0.12247E-01 SP= 0.00E+00 SK= 0.00E+00
 bond charge predicted
 prediction of wavefunctions
       N       E                     dE             d eps       ncg     rms          rms(c)
DAV:   1    -0.240253825053E+02   -0.43045E-02   -0.73759E-04    64   0.178E-01    0.519E-03
RMM:   2    -0.240253838878E+02   -0.13825E-05   -0.65098E-06    64   0.218E-02    0.247E-03
RMM:   3    -0.240253863520E+02   -0.24643E-05   -0.30602E-06    60   0.108E-02    0.114E-03
RMM:   4    -0.240253869516E+02   -0.59964E-06   -0.16986E-07    48   0.309E-03
    5 T=    32. E= -.24008909E+02 F= -.24025387E+02 E0= -.24025387E+02  EK= 0.16478E-01 SP= 0.00E+00 SK= 0.00E+00
 bond charge predicted
 prediction of wavefunctions
       N       E                     dE             d eps       ncg     rms          rms(c)
DAV:   1    -0.240276532149E+02   -0.22669E-02   -0.99580E-04    80   0.203E-01    0.325E-03
RMM:   2    -0.240276567257E+02   -0.35108E-05   -0.85764E-06    64   0.246E-02    0.170E-03
RMM:   3    -0.240276594377E+02   -0.27120E-05   -0.72602E-07    48   0.648E-03    0.393E-04
RMM:   4    -0.240276610782E+02   -0.16405E-05   -0.24532E-07    48   0.410E-03    0.319E-04
RMM:   5    -0.240276635397E+02   -0.24615E-05   -0.10714E-07    47   0.216E-03    0.312E-04
RMM:   6    -0.240276641173E+02   -0.57752E-06    0.00000E+00    32   0.123E-03
    6 T=    36. E= -.24008957E+02 F= -.24027664E+02 E0= -.24027664E+02  EK= 0.18707E-01 SP= 0.00E+00 SK= 0.00E+00
 bond charge predicted
 prediction of wavefunctions
       N       E                     dE             d eps       ncg     rms          rms(c)
DAV:   1    -0.240272173027E+02    0.44624E-03   -0.97367E-04    64   0.208E-01    0.340E-03
RMM:   2    -0.240272215990E+02   -0.42963E-05   -0.10122E-05    64   0.285E-02    0.228E-03
RMM:   3    -0.240272254446E+02   -0.38456E-05   -0.64283E-07    48   0.652E-03    0.763E-04
RMM:   4    -0.240272280899E+02   -0.26453E-05   -0.16878E-07    48   0.367E-03    0.398E-04
RMM:   5    -0.240272326737E+02   -0.45837E-05   -0.81158E-08    46   0.206E-03    0.189E-04
RMM:   6    -0.240272355666E+02   -0.28930E-05   -0.49572E-08    40   0.175E-03    0.251E-04
RMM:   7    -0.240272373191E+02   -0.17525E-05   -0.12536E-07    42   0.203E-03    0.275E-04
RMM:   8    -0.240272373354E+02   -0.16286E-07    0.00000E+00    32   0.106E-03
    7 T=    35. E= -.24008951E+02 F= -.24027237E+02 E0= -.24027237E+02  EK= 0.18286E-01 SP= 0.00E+00 SK= 0.00E+00
 bond charge predicted
 prediction of wavefunctions
       N       E                     dE             d eps       ncg     rms          rms(c)
DAV:   1    -0.240242806885E+02    0.29566E-02   -0.78056E-04    64   0.195E-01    0.240E-03
RMM:   2    -0.240242818370E+02   -0.11485E-05   -0.78369E-06    64   0.325E-02    0.115E-03
RMM:   3    -0.240242821171E+02   -0.28013E-06   -0.15393E-07    48   0.362E-03    0.786E-04
RMM:   4    -0.240242825811E+02   -0.46395E-06   -0.87082E-08    48   0.252E-03
    8 T=    30. E= -.24008891E+02 F= -.24024283E+02 E0= -.24024283E+02  EK= 0.15392E-01 SP= 0.00E+00 SK= 0.00E+00
 bond charge predicted
 prediction of wavefunctions
       N       E                     dE             d eps       ncg     rms          rms(c)
DAV:   1    -0.240198169847E+02    0.44651E-02   -0.57355E-04    72   0.171E-01    0.260E-03
RMM:   2    -0.240198178425E+02   -0.85780E-06   -0.72830E-06    61   0.333E-02    0.207E-03
RMM:   3    -0.240198179203E+02   -0.77776E-07   -0.22031E-07    48   0.379E-03    0.153E-03
RMM:   4    -0.240198183418E+02   -0.42153E-06   -0.34903E-07    48   0.405E-03
    9 T=    21. E= -.24008794E+02 F= -.24019818E+02 E0= -.24019818E+02  EK= 0.11024E-01 SP= 0.00E+00 SK= 0.00E+00
 bond charge predicted
 prediction of wavefunctions
       N       E                     dE             d eps       ncg     rms          rms(c)
DAV:   1    -0.240154066551E+02    0.44113E-02   -0.31646E-04    96   0.145E-01    0.108E-03
RMM:   2    -0.240154072884E+02   -0.63326E-06   -0.43983E-06    56   0.257E-02    0.145E-03
RMM:   3    -0.240154073043E+02   -0.15939E-07   -0.10376E-07    44   0.315E-03    0.140E-03
RMM:   4    -0.240154075058E+02   -0.20142E-06   -0.13140E-08    36   0.181E-03
   10 T=    13. E= -.24008696E+02 F= -.24015408E+02 E0= -.24015408E+02  EK= 0.67115E-02 SP= 0.00E+00 SK= 0.00E+00
 bond charge predicted
 prediction of wavefunctions
 wavefunctions rotated
