unknown system                          
           1
     9.992056    0.000000    0.000000
    -0.215935   10.201414    0.000000
     0.159205    0.070076   10.157951
   H    C 
   4   1
Direct configuration=     1
   0.53808418  0.40678793  0.36057718
   0.39431646  0.48029420  0.43895737
   0.55207083  0.56540718  0.44269107
   0.52879696  0.41575497  0.53910899
   0.50324467  0.46722787  0.44521499
Direct configuration=     2
   0.53804655  0.40688770  0.36068099
   0.39435001  0.48026123  0.43897551
   0.55207288  0.56533941  0.44267945
   0.52873775  0.41584266  0.53896643
   0.50324977  0.46722065  0.44521767
Direct configuration=     3
   0.53797490  0.40708041  0.36087995
   0.39441428  0.48019661  0.43901213
   0.55207835  0.56520823  0.44265697
   0.52862239  0.41601243  0.53869219
   0.50325954  0.46720677  0.44522276
Direct configuration=     4
   0.53787533  0.40735419  0.36115845
   0.39450474  0.48010217  0.43906628
   0.55208954  0.56502148  0.44262384
   0.52845715  0.41625274  0.53830686
   0.50327312  0.46718738  0.44522990
Direct configuration=     5
   0.53775660  0.40769194  0.36149404
   0.39461472  0.47998058  0.43913658
   0.55210976  0.56479048  0.44258038
   0.52825110  0.41654690  0.53784026
   0.50328932  0.46716413  0.44523858
Direct configuration=     6
   0.53762967  0.40807221  0.36185860
   0.39473583  0.47983527  0.43922122
   0.55214306  0.56452944  0.44252701
   0.52801574  0.41687382  0.53733000
   0.50330663  0.46713908  0.44524811
Direct configuration=     7
   0.53750686  0.40847063  0.36222044
   0.39485866  0.47967025  0.43931801
   0.55219377  0.56425427  0.44246433
   0.52776426  0.41720947  0.53681889
   0.50332334  0.46711461  0.44525769
Direct configuration=     8
   0.53740100  0.40886157  0.36254657
   0.39497332  0.47948996  0.43942454
   0.55226617  0.56398166  0.44239309
   0.52751069  0.41752845  0.53635192
   0.50333769  0.46709321  0.44526648
Direct configuration=     9
   0.53732423  0.40922019  0.36280562
   0.39507025  0.47929909  0.43953816
   0.55236393  0.56372781  0.44231428
   0.52726884  0.41780623  0.53597230
   0.50334801  0.46707726  0.44527362
Direct configuration=    10
   0.53728688  0.40952452  0.36297082
   0.39514077  0.47910241  0.43965612
   0.55248972  0.56350731  0.44222907
   0.52705119  0.41802134  0.53571727
   0.50335290  0.46706874  0.44527837
