       N       E                     dE             d eps       ncg     rms          rms(c)
DAV:   1     0.113323326409E+02    0.11332E+02   -0.18183E+03    96   0.384E+02
DAV:   2    -0.232526511931E+02   -0.34585E+02   -0.34585E+02    64   0.112E+02
DAV:   3    -0.270512060867E+02   -0.37986E+01   -0.37986E+01    80   0.433E+01
DAV:   4    -0.271393339133E+02   -0.88128E-01   -0.88128E-01   128   0.621E+00
DAV:   5    -0.271393627017E+02   -0.28788E-04   -0.28789E-04    96   0.124E-01    0.823E+00
RMM:   6    -0.245509726533E+02    0.25884E+01   -0.47079E+00    64   0.131E+01    0.409E+00
RMM:   7    -0.241142919209E+02    0.43668E+00   -0.96538E-01    64   0.563E+00    0.220E+00
RMM:   8    -0.239728620423E+02    0.14143E+00   -0.16294E-01    64   0.284E+00    0.232E-01
RMM:   9    -0.239674192729E+02    0.54428E-02   -0.10584E-02    64   0.677E-01    0.189E-01
RMM:  10    -0.239608527814E+02    0.65665E-02   -0.24742E-02    64   0.847E-01    0.267E-01
RMM:  11    -0.239619445009E+02   -0.10917E-02   -0.10473E-02    64   0.622E-01    0.112E-01
RMM:  12    -0.239707648307E+02   -0.88203E-02   -0.23858E-03    64   0.296E-01    0.113E-01
RMM:  13    -0.239714498834E+02   -0.68505E-03   -0.12308E-03    64   0.190E-01    0.335E-02
RMM:  14    -0.239743412208E+02   -0.28913E-02   -0.10137E-03    64   0.191E-01    0.244E-02
RMM:  15    -0.239745397079E+02   -0.19849E-03   -0.79714E-05    64   0.481E-02    0.265E-02
RMM:  16    -0.239747819609E+02   -0.24225E-03   -0.23994E-04    64   0.873E-02    0.104E-02
RMM:  17    -0.239748097624E+02   -0.27801E-04   -0.15749E-05    64   0.245E-02    0.182E-03
RMM:  18    -0.239748308548E+02   -0.21092E-04   -0.43138E-06    60   0.129E-02    0.209E-03
RMM:  19    -0.239748335698E+02   -0.27150E-05   -0.16429E-06    48   0.774E-03    0.765E-04
RMM:  20    -0.239748359421E+02   -0.23723E-05   -0.14564E-07    44   0.318E-03    0.284E-04
RMM:  21    -0.239748361199E+02   -0.17777E-06   -0.23620E-08    36   0.145E-03
    1 T=     2. E= -.23973926E+02 F= -.23974836E+02 E0= -.23974836E+02  EK= 0.91026E-03 SP= 0.00E+00 SK= 0.00E+00
       N       E                     dE             d eps       ncg     rms          rms(c)
DAV:   1    -0.239819736814E+02   -0.71377E-02   -0.81844E-03    88   0.799E-01    0.494E-02
RMM:   2    -0.239818951262E+02    0.78555E-04   -0.22221E-04    64   0.948E-02    0.199E-02
RMM:   3    -0.239818945877E+02    0.53843E-06   -0.10515E-04    64   0.612E-02    0.926E-03
RMM:   4    -0.239818953490E+02   -0.76129E-06   -0.91278E-06    64   0.199E-02
    2 T=    15. E= -.23974038E+02 F= -.23981895E+02 E0= -.23981895E+02  EK= 0.78576E-02 SP= 0.00E+00 SK= 0.00E+00
       N       E                     dE             d eps       ncg     rms          rms(c)
DAV:   1    -0.239941834515E+02   -0.12289E-01   -0.56894E-03    96   0.734E-01    0.443E-03
RMM:   2    -0.239941896648E+02   -0.62134E-05   -0.51494E-05    64   0.635E-02    0.264E-03
RMM:   3    -0.239941904870E+02   -0.82215E-06   -0.22551E-06    52   0.128E-02    0.233E-03
RMM:   4    -0.239941918200E+02   -0.13330E-05   -0.99321E-07    48   0.750E-03    0.384E-04
RMM:   5    -0.239941923556E+02   -0.53560E-06   -0.18447E-07    48   0.417E-03
    3 T=    39. E= -.23974242E+02 F= -.23994192E+02 E0= -.23994192E+02  EK= 0.19950E-01 SP= 0.00E+00 SK= 0.00E+00
       N       E                     dE             d eps       ncg     rms          rms(c)
DAV:   1    -0.240084437209E+02   -0.14252E-01   -0.12986E-03    88   0.183E-01    0.827E-03
RMM:   2    -0.240084463838E+02   -0.26629E-05   -0.26810E-05    64   0.356E-02    0.174E-03
RMM:   3    -0.240084486559E+02   -0.22721E-05   -0.12570E-06    48   0.988E-03    0.109E-03
RMM:   4    -0.240084510256E+02   -0.23698E-05   -0.30482E-07    48   0.470E-03    0.312E-04
RMM:   5    -0.240084523132E+02   -0.12876E-05   -0.11199E-07    48   0.248E-03    0.188E-04
RMM:   6    -0.240084531279E+02   -0.81468E-06   -0.40283E-08    38   0.174E-03
    4 T=    66. E= -.23974505E+02 F= -.24008453E+02 E0= -.24008453E+02  EK= 0.33948E-01 SP= 0.00E+00 SK= 0.00E+00
       N       E                     dE             d eps       ncg     rms          rms(c)
DAV:   1    -0.240206885092E+02   -0.12236E-01   -0.20313E-03    64   0.225E-01    0.351E-03
RMM:   2    -0.240206907266E+02   -0.22175E-05   -0.10246E-05    64   0.273E-02    0.119E-03
RMM:   3    -0.240206919046E+02   -0.11780E-05   -0.27560E-07    48   0.518E-03    0.858E-04
RMM:   4    -0.240206945981E+02   -0.26934E-05   -0.26442E-07    48   0.340E-03    0.365E-04
RMM:   5    -0.240206955712E+02   -0.97311E-06   -0.24777E-08    37   0.168E-03
    5 T=    89. E= -.23974746E+02 F= -.24020696E+02 E0= -.24020696E+02  EK= 0.45950E-01 SP= 0.00E+00 SK= 0.00E+00
       N       E                     dE             d eps       ncg     rms          rms(c)
DAV:   1    -0.240272713965E+02   -0.65768E-02   -0.25717E-03    96   0.258E-01    0.323E-03
RMM:   2    -0.240272754731E+02   -0.40767E-05   -0.15397E-05    64   0.398E-02    0.145E-03
RMM:   3    -0.240272774840E+02   -0.20109E-05   -0.48034E-07    48   0.684E-03    0.109E-03
RMM:   4    -0.240272799271E+02   -0.24431E-05   -0.18248E-07    48   0.368E-03    0.473E-04
RMM:   5    -0.240272815380E+02   -0.16109E-05   -0.37108E-08    44   0.207E-03    0.218E-04
RMM:   6    -0.240272836284E+02   -0.20903E-05   -0.11711E-07    44   0.195E-03    0.363E-04
RMM:   7    -0.240272837774E+02   -0.14901E-06    0.00000E+00    32   0.111E-03
    6 T=   101. E= -.23974902E+02 F= -.24027284E+02 E0= -.24027284E+02  EK= 0.52382E-01 SP= 0.00E+00 SK= 0.00E+00
       N       E                     dE             d eps       ncg     rms          rms(c)
DAV:   1    -0.240259934145E+02    0.12902E-02   -0.25481E-03    96   0.271E-01    0.290E-03
RMM:   2    -0.240259983688E+02   -0.49544E-05   -0.16238E-05    64   0.505E-02    0.210E-03
RMM:   3    -0.240260002120E+02   -0.18432E-05   -0.25029E-07    48   0.482E-03    0.164E-03
RMM:   4    -0.240260058358E+02   -0.56238E-05   -0.18977E-07    48   0.383E-03    0.323E-04
RMM:   5    -0.240260077624E+02   -0.19265E-05   -0.11885E-08    36   0.162E-03    0.190E-04
RMM:   6    -0.240260117318E+02   -0.39694E-05   -0.11167E-07    47   0.203E-03    0.218E-04
RMM:   7    -0.240260117809E+02   -0.49184E-07    0.00000E+00    32   0.974E-04
    7 T=    99. E= -.23974907E+02 F= -.24026012E+02 E0= -.24026012E+02  EK= 0.51105E-01 SP= 0.00E+00 SK= 0.00E+00
       N       E                     dE             d eps       ncg     rms          rms(c)
DAV:   1    -0.240170226931E+02    0.89890E-02   -0.21036E-03    64   0.269E-01    0.587E-03
RMM:   2    -0.240170254609E+02   -0.27678E-05   -0.29539E-05    64   0.637E-02    0.308E-03
RMM:   3    -0.240170258634E+02   -0.40248E-06   -0.76414E-07    48   0.807E-03    0.200E-03
RMM:   4    -0.240170264341E+02   -0.57064E-06   -0.75572E-07    48   0.676E-03
    8 T=    82. E= -.23974746E+02 F= -.24017026E+02 E0= -.24017026E+02  EK= 0.42281E-01 SP= 0.00E+00 SK= 0.00E+00
       N       E                     dE             d eps       ncg     rms          rms(c)
DAV:   1    -0.240030778282E+02    0.13948E-01   -0.16528E-03    64   0.255E-01    0.347E-03
RMM:   2    -0.240030809529E+02   -0.31247E-05   -0.28170E-05    64   0.681E-02    0.417E-03
RMM:   3    -0.240030810084E+02   -0.55438E-07   -0.48728E-07    48   0.631E-03    0.366E-03
RMM:   4    -0.240030822010E+02   -0.11927E-05   -0.20952E-07    48   0.471E-03    0.326E-04
RMM:   5    -0.240030823712E+02   -0.17017E-06   -0.16671E-08    37   0.186E-03
    9 T=    55. E= -.23974455E+02 F= -.24003082E+02 E0= -.24003082E+02  EK= 0.28627E-01 SP= 0.00E+00 SK= 0.00E+00
       N       E                     dE             d eps       ncg     rms          rms(c)
DAV:   1    -0.239888755677E+02    0.14207E-01   -0.94843E-04    96   0.219E-01    0.578E-03
RMM:   2    -0.239888778816E+02   -0.23139E-05   -0.20990E-05    64   0.544E-02    0.199E-03
RMM:   3    -0.239888787112E+02   -0.82957E-06   -0.66448E-07    48   0.752E-03    0.874E-04
RMM:   4    -0.239888795046E+02   -0.79344E-06   -0.26559E-07    48   0.480E-03
   10 T=    29. E= -.23974135E+02 F= -.23988880E+02 E0= -.23988880E+02  EK= 0.14744E-01 SP= 0.00E+00 SK= 0.00E+00
